<VTKFile type="UnstructuredGrid" version="0.1" byte_order="BigEndian">
  <UnstructuredGrid>
    <Piece NumberOfPoints="324" NumberOfCells="193">
      <Points>
        <DataArray type="Float32" NumberOfComponents="3" Format="ascii">
          0.000000 0.000000 0.0
          1.000000 0.000000 0.0
          0.099031 0.566116 0.0
          1.433884 0.099031 0.0
          1.089205 0.908576 0.0
          0.895385 0.895916 0.0
          1.993712 1.111964 0.0
          1.974928 1.222521 0.0
          1.943883 1.330279 0.0
          1.900969 1.433884 0.0
          1.846724 1.532032 0.0
          1.781831 1.623490 0.0
          1.532032 0.153276 0.0
          1.623490 0.218169 0.0
          1.707107 0.292893 0.0
          1.781831 0.376510 0.0
          1.846724 0.467968 0.0
          1.900969 0.566116 0.0
          1.943883 0.669721 0.0
          1.974928 0.777479 0.0
          1.993712 0.888036 0.0
          0.777479 1.974928 0.0
          0.669721 1.943883 0.0
          0.566116 1.900969 0.0
          0.467968 1.846724 0.0
          0.376510 1.781831 0.0
          0.292893 1.707107 0.0
          0.218169 1.623490 0.0
          0.153276 1.532032 0.0
          0.099031 1.433884 0.0
          0.056117 1.330279 0.0
          0.025072 1.222521 0.0
          0.006288 1.111964 0.0
          0.000000 1.000000 0.0
          0.006288 0.888036 0.0
          0.025072 0.777479 0.0
          0.056117 0.669721 0.0
          0.153276 0.467968 0.0
          0.218169 0.376510 0.0
          0.292893 0.292893 0.0
          0.376510 0.218169 0.0
          0.467968 0.153276 0.0
          0.566116 0.099031 0.0
          0.669721 0.056117 0.0
          0.777479 0.025072 0.0
          0.888036 0.006288 0.0
          1.000000 0.000000 0.0
          1.111964 0.006288 0.0
          1.222521 0.025072 0.0
          1.330279 0.056117 0.0
          1.354476 0.146713 0.0
          1.312237 0.473684 0.0
          1.304888 0.585642 0.0
          1.204375 0.635173 0.0
          1.197078 0.747054 0.0
          1.096514 0.796675 0.0
          1.317529 0.240945 0.0
          1.319350 0.362750 0.0
          0.850417 1.893346 0.0
          0.737170 1.854640 0.0
          0.665170 1.442616 0.0
          0.765584 1.393148 0.0
          0.888076 1.007819 0.0
          0.772893 1.281245 0.0
          0.880767 1.119721 0.0
          0.648856 1.769975 0.0
          0.653224 1.665425 0.0
          0.873458 1.231624 0.0
          0.658166 1.554464 0.0
          0.422966 0.696519 0.0
          0.515052 0.758695 0.0
          0.198680 0.568549 0.0
          0.282618 0.566332 0.0
          0.608308 0.820976 0.0
          0.708873 0.771354 0.0
          0.701564 0.883257 0.0
          0.794820 0.945538 0.0
          0.344742 0.633789 0.0
          1.275717 1.033138 0.0
          1.368973 1.095419 0.0
          1.639777 1.497664 0.0
          1.669540 1.598926 0.0
          1.462229 1.157700 0.0
          1.555485 1.219981 0.0
          1.548176 1.331884 0.0
          1.182461 0.970857 0.0
          1.640762 1.382793 0.0
          0.995949 0.846295 0.0
          1.547032 1.568752 0.0
          1.598204 1.674359 0.0
          1.026713 1.811832 0.0
          1.135368 1.757550 0.0
          1.149219 1.883099 0.0
          0.743688 1.731383 0.0
          1.048666 1.918781 0.0
          0.836791 1.793005 0.0
          1.243420 1.807864 0.0
          1.331899 1.753476 0.0
          1.342654 1.851623 0.0
          1.508102 1.655558 0.0
          1.257729 1.894598 0.0
          0.955433 1.905262 0.0
          0.843792 1.678747 0.0
          0.935020 1.736726 0.0
          0.917487 1.824718 0.0
          1.074587 1.132381 0.0
          1.175152 1.082759 0.0
          1.167843 1.194662 0.0
          1.081896 1.020478 0.0
          1.268408 1.145040 0.0
          0.988641 0.958197 0.0
          0.974023 1.182002 0.0
          0.981332 1.070100 0.0
          0.750882 1.616858 0.0
          0.758348 1.504958 0.0
          0.851459 1.567250 0.0
          0.858828 1.455415 0.0
          0.952082 1.517694 0.0
          0.959405 1.405807 0.0
          1.059969 1.356186 0.0
          1.052660 1.468088 0.0
          0.944786 1.629612 0.0
          1.045351 1.579991 0.0
          0.966714 1.293905 0.0
          1.153225 1.418467 0.0
          0.866149 1.343526 0.0
          1.440302 1.493407 0.0
          1.429957 1.601377 0.0
          1.354355 1.319224 0.0
          1.447611 1.381505 0.0
          1.347046 1.431126 0.0
          1.239172 1.592650 0.0
          1.330368 1.650856 0.0
          1.232321 1.703866 0.0
          1.067278 1.244283 0.0
          1.454920 1.269603 0.0
          1.339737 1.543029 0.0
          1.361664 1.207322 0.0
          1.542104 1.444009 0.0
          1.261099 1.256943 0.0
          1.253790 1.368845 0.0
          1.160534 1.306564 0.0
          1.246481 1.480748 0.0
          1.145916 1.530369 0.0
          1.431520 1.801823 0.0
          1.138607 1.642272 0.0
          1.038042 1.691893 0.0
          1.425482 1.700778 0.0
          1.518613 1.742751 0.0
          1.865129 0.959256 0.0
          1.733417 1.421307 0.0
          1.743290 1.522186 0.0
          1.876351 0.842209 0.0
          1.757863 1.239234 0.0
          1.868800 1.244851 0.0
          1.824546 1.348542 0.0
          1.772098 0.896090 0.0
          1.778526 0.786134 0.0
          1.912543 1.052686 0.0
          1.608894 0.334151 0.0
          1.600319 0.443807 0.0
          1.510808 0.379288 0.0
          1.723764 1.330952 0.0
          1.693035 0.400439 0.0
          1.871041 0.736631 0.0
          1.684458 0.723265 0.0
          1.690553 0.612450 0.0
          1.780630 0.678171 0.0
          1.759020 1.008366 0.0
          1.412829 0.424012 0.0
          1.484164 0.821992 0.0
          1.390855 0.759770 0.0
          1.491223 0.710342 0.0
          1.584634 0.772448 0.0
          1.590987 0.661261 0.0
          1.398078 0.648014 0.0
          1.297635 0.697455 0.0
          1.405127 0.536524 0.0
          1.498327 0.598890 0.0
          1.283026 0.921236 0.0
          1.376282 0.983517 0.0
          1.189770 0.858955 0.0
          1.290333 0.809338 0.0
          1.383592 0.871615 0.0
          1.751035 1.120872 0.0
          1.662541 1.058379 0.0
          1.656050 1.170360 0.0
          1.469538 1.045798 0.0
          1.476847 0.933895 0.0
          1.570103 0.996176 0.0
          1.562794 1.108079 0.0
          1.577413 0.884276 0.0
          1.670668 0.946555 0.0
          1.793112 0.560190 0.0
          1.646973 1.278681 0.0
          1.677978 0.834655 0.0
          1.899230 1.147963 0.0
          1.521562 0.264927 0.0
          1.596426 0.552898 0.0
          1.503703 0.489996 0.0
          1.814507 1.176361 0.0
          1.420820 0.314206 0.0
          1.429116 0.204252 0.0
          1.689048 0.506068 0.0
          1.826251 1.069097 0.0
          1.863471 0.642339 0.0
          1.815150 1.452576 0.0
          1.763427 0.459348 0.0
          0.348087 1.599150 0.0
          0.262823 1.514589 0.0
          0.211194 1.132177 0.0
          0.102279 1.060904 0.0
          0.206213 1.017061 0.0
          0.107788 1.164631 0.0
          0.122885 0.747308 0.0
          0.234593 0.672031 0.0
          0.221334 0.796521 0.0
          0.146472 0.645403 0.0
          0.116935 0.957451 0.0
          0.284351 1.303525 0.0
          0.276551 1.409094 0.0
          0.172189 1.346588 0.0
          0.640771 1.861240 0.0
          0.559392 1.600219 0.0
          0.559089 1.705032 0.0
          0.449790 1.640153 0.0
          0.111425 0.849025 0.0
          0.212629 0.907829 0.0
          0.383290 1.694203 0.0
          0.465155 1.744582 0.0
          0.369764 1.475963 0.0
          0.198146 1.240907 0.0
          0.191855 1.446646 0.0
          0.780202 1.169343 0.0
          0.694255 0.995159 0.0
          0.787511 1.057440 0.0
          0.679637 1.218964 0.0
          0.586381 1.156683 0.0
          0.686946 1.107062 0.0
          0.463207 1.538921 0.0
          0.471224 1.429380 0.0
          0.564905 1.491677 0.0
          0.571763 1.380488 0.0
          0.313801 0.857983 0.0
          0.325419 0.746318 0.0
          0.306614 0.969840 0.0
          0.301380 1.081878 0.0
          0.393501 1.144029 0.0
          0.295566 1.193545 0.0
          0.407178 0.920219 0.0
          0.399869 1.032121 0.0
          0.385251 1.255926 0.0
          0.500434 0.982500 0.0
          0.672328 1.330867 0.0
          0.579072 1.268586 0.0
          0.507743 0.870597 0.0
          0.378326 1.367254 0.0
          0.493125 1.094402 0.0
          0.485816 1.206305 0.0
          0.478507 1.318207 0.0
          0.414487 0.808316 0.0
          0.600999 0.932878 0.0
          0.593690 1.044781 0.0
          0.108986 1.256697 0.0
          0.559546 1.805427 0.0
          0.438710 0.475802 0.0
          0.352294 0.523306 0.0
          0.343013 0.406820 0.0
          0.455294 0.372762 0.0
          0.939926 0.229230 0.0
          0.852755 0.184104 0.0
          0.945367 0.114512 0.0
          1.028262 0.192164 0.0
          0.745229 0.115672 0.0
          0.749370 0.222575 0.0
          0.844236 0.085916 0.0
          1.203269 0.203705 0.0
          1.261571 0.133219 0.0
          0.550485 0.318002 0.0
          0.468998 0.256431 0.0
          0.383398 0.309178 0.0
          0.257461 0.480071 0.0
          1.114003 0.169530 0.0
          1.161777 0.105856 0.0
          1.055494 0.094084 0.0
          0.650486 0.266057 0.0
          0.640036 0.374679 0.0
          1.223577 0.303699 0.0
          1.219040 0.411313 0.0
          0.630235 0.485267 0.0
          0.731219 0.436049 0.0
          0.540257 0.429008 0.0
          0.723491 0.547549 0.0
          0.522361 0.646792 0.0
          0.530216 0.535893 0.0
          0.622926 0.597171 0.0
          0.824056 0.497927 0.0
          0.431937 0.584858 0.0
          0.831757 0.387129 0.0
          0.924621 0.448306 0.0
          1.025187 0.398684 0.0
          0.931610 0.336883 0.0
          1.017877 0.510587 0.0
          1.118442 0.460966 0.0
          1.111127 0.572878 0.0
          0.917312 0.560209 0.0
          1.211682 0.523276 0.0
          1.010567 0.622491 0.0
          1.103821 0.684775 0.0
          1.125757 0.349058 0.0
          1.121213 0.251842 0.0
          1.003258 0.734393 0.0
          0.902694 0.784014 0.0
          0.910003 0.672112 0.0
          0.802129 0.833635 0.0
          0.809438 0.721733 0.0
          0.816747 0.609830 0.0
          0.559823 0.207093 0.0
          0.716182 0.659452 0.0
          0.615617 0.709073 0.0
          0.740232 0.325057 0.0
          0.841342 0.280271 0.0
          1.030573 0.289662 0.0
          0.656791 0.161091 0.0
        </DataArray>
      </Points>
      <Cells>
        <DataArray type="Int32" Name="connectivity" Format="ascii">
          265  266  267  
          267  268  265  
          269  270  271  
          271  272  269  
          273  270  274  
          275  270  273  
          56  276  277  
          278  268  279  
          277  50  56  
          280  268  267  
          279  268  280  
          271  270  275  
          267  266  281  
          276  282  283  
          284  272  271  
          278  285  286  
          277  276  283  
          287  56  57  
          288  57  51  
          287  57  288  
          289  286  290  
          289  291  286  
          289  290  292  
          293  294  295  
          294  265  291  
          292  290  296  
          293  297  294  
          296  290  298  
          298  299  296  
          295  294  289  
          300  299  301  
          300  302  299  
          301  299  298  
          303  302  300  
          289  294  291  
          303  304  302  
          296  299  305  
          297  265  294  
          299  302  305  
          293  69  297  
          306  304  303  
          307  304  308  
          302  307  305  
          302  304  307  
          308  304  53  
          309  310  287  
          311  307  308  
          55  311  308  
          312  313  311  
          311  313  307  
          87  312  311  
          312  314  315  
          315  313  312  
          5  314  312  
          5  312  87  
          316  313  315  
          74  314  75  
          307  313  305  
          305  313  316  
          75  314  76  
          315  314  74  
          47  284  46  
          42  317  41  
          49  277  48  
          318  74  319  
          38  281  37  
          45  275  44  
          295  318  319  
          70  293  319  
          295  289  292  
          316  315  318  
          292  316  318  
          315  74  318  
          40  280  39  
          319  74  73  
          292  296  316  
          296  305  316  
          295  292  318  
          70  319  73  
          293  295  319  
          290  286  320  
          76  314  5  
          320  274  321  
          298  290  320  
          298  320  321  
          87  311  55  
          301  298  321  
          301  321  269  
          4  87  55  
          301  269  322  
          300  301  322  
          322  310  309  
          300  322  309  
          54  55  308  
          54  308  53  
          309  287  288  
          303  300  309  
          303  309  288  
          306  303  288  
          70  69  293  
          53  304  306  
          52  53  306  
          306  288  51  
          52  306  51  
          69  77  297  
          317  285  278  
          286  285  320  
          291  278  286  
          77  266  297  
          310  282  276  
          322  272  310  
          287  276  56  
          43  323  42  
          42  323  317  
          274  270  321  
          320  285  274  
          47  283  284  
          277  283  48  
          284  271  46  
          46  271  45  
          45  271  275  
          37  71  2  
          280  267  39  
          39  267  38  
          48  283  47  
          38  267  281  
          281  71  37  
          317  279  41  
          40  279  280  
          275  273  44  
          285  323  274  
          49  50  277  
          291  268  278  
          41  279  40  
          3  50  49  
          317  323  285  
          297  266  265  
          278  279  317  
          44  273  43  
          269  272  322  
          323  273  274  
          43  273  323  
          272  282  310  
          310  276  287  
          77  72  266  
          265  268  291  
          321  270  269  
          281  72  71  
          266  72  281  
          283  282  284  
          284  282  272  
          71  72  215  
          71  215  217  
          51  57  169  
          52  175  176  
          177  175  52  
          54  182  181  
          4  85  108  
          110  5  87  
          76  234  75  
          235  234  76  
          62  76  5  
          73  74  75  
          2  217  36  
          255  73  261  
          73  75  261  
          255  260  70  
          255  70  73  
          235  76  62  
          62  5  110  
          75  234  261  
          4  108  110  
          4  110  87  
          181  85  4  
          181  4  55  
          54  181  55  
          176  182  54  
          176  54  53  
          52  176  53  
          244  69  260  
          260  69  70  
          244  77  69  
          177  52  51  
          177  51  169  
          57  56  201  
          169  57  201  
          56  202  201  
          12  202  3  
          215  72  77  
          2  71  217  
          56  50  202  
          202  50  3  
          244  215  77  
                  </DataArray>
        <DataArray type="Int32" Name="offsets" Format="ascii">
          3  6  9  12  15  18  21  24  27  30  33  36  39  42  45  48  51  54  57  60  63  66  69  72  75  78  81  84  87  90  93  96  99  102  105  108  111  114  117  120  123  126  129  132  135  138  141  144  147  150  153  156  159  162  165  168  171  174  177  180  183  186  189  192  195  198  201  204  207  210  213  216  219  222  225  228  231  234  237  240  243  246  249  252  255  258  261  264  267  270  273  276  279  282  285  288  291  294  297  300  303  306  309  312  315  318  321  324  327  330  333  336  339  342  345  348  351  354  357  360  363  366  369  372  375  378  381  384  387  390  393  396  399  402  405  408  411  414  417  420  423  426  429  432  435  438  441  444  447  450  453  456  459  462  465  468  471  474  477  480  483  486  489  492  495  498  501  504  507  510  513  516  519  522  525  528  531  534  537  540  543  546  549  552  555  558  561  564  567  570  573  576  579  
        </DataArray>
        <DataArray type="Int32" Name="types" Format="ascii">
          5  5  5  5  5  5  5  5  5  5  5  5  5  5  5  5  5  5  5  5  5  5  5  5  5  5  5  5  5  5  5  5  5  5  5  5  5  5  5  5  5  5  5  5  5  5  5  5  5  5  5  5  5  5  5  5  5  5  5  5  5  5  5  5  5  5  5  5  5  5  5  5  5  5  5  5  5  5  5  5  5  5  5  5  5  5  5  5  5  5  5  5  5  5  5  5  5  5  5  5  5  5  5  5  5  5  5  5  5  5  5  5  5  5  5  5  5  5  5  5  5  5  5  5  5  5  5  5  5  5  5  5  5  5  5  5  5  5  5  5  5  5  5  5  5  5  5  5  5  5  5  5  5  5  5  5  5  5  5  5  5  5  5  5  5  5  5  5  5  5  5  5  5  5  5  5  5  5  5  5  5  5  5  5  5  5  5  5  5  5  5  5  5  
        </DataArray>
      </Cells>
      <CellData Scalars="scalars">
        <DataArray type="Float32" Name="rank" Format="ascii">
          2
          2
          2
          2
          2
          2
          2
          2
          2
          2
          2
          2
          2
          2
          2
          2
          2
          2
          2
          2
          2
          2
          2
          2
          2
          2
          2
          2
          2
          2
          2
          2
          2
          2
          2
          2
          2
          2
          2
          2
          2
          2
          2
          2
          2
          2
          2
          2
          2
          2
          2
          2
          2
          2
          2
          2
          2
          2
          2
          2
          2
          2
          2
          2
          2
          2
          2
          2
          2
          2
          2
          2
          2
          2
          2
          2
          2
          2
          2
          2
          2
          2
          2
          2
          2
          2
          2
          2
          2
          2
          2
          2
          2
          2
          2
          2
          2
          2
          2
          2
          2
          2
          2
          2
          2
          2
          2
          2
          2
          2
          2
          2
          2
          2
          2
          2
          2
          2
          2
          2
          2
          2
          2
          2
          2
          2
          2
          2
          2
          2
          2
          2
          2
          2
          2
          2
          2
          2
          2
          2
          2
          2
          2
          2
          2
          2
          2
          2
          2
          2
          2
          2
          2
          2
          2
          2
          2
          2
          2
          2
          2
          2
          2
          2
          2
          2
          2
          2
          2
          2
          2
          2
          2
          2
          2
          2
          2
          2
          2
          2
          2
          2
          2
          2
          2
          2
          2
          2
          2
          2
          2
          2
          2
        </DataArray>
        <DataArray type="Float32" Name="T" Format="ascii">
          0.090732
          0.087366
          0.086494
          0.089242
          0.076269
          0.060992
          0.078813
          0.077077
          0.064704
          0.066505
          0.062085
          0.066151
          0.073106
          0.076178
          0.072079
          0.103568
          0.067159
          0.113693
          0.147069
          0.134995
          0.144442
          0.133280
          0.162504
          0.160952
          0.125420
          0.171386
          0.146588
          0.162180
          0.168201
          0.157303
          0.159256
          0.174574
          0.156088
          0.174974
          0.139650
          0.187396
          0.183416
          0.128660
          0.186622
          0.147403
          0.184967
          0.208856
          0.198990
          0.199367
          0.206426
          0.126547
          0.217931
          0.224543
          0.223835
          0.217566
          0.230416
          0.224203
          0.220709
          0.230769
          0.233852
          0.211278
          0.219004
          0.208118
          0.204957
          0.225649
          0.218295
          0.028612
          0.028351
          0.028722
          0.200124
          0.028849
          0.023655
          0.187803
          0.176960
          0.168931
          0.205337
          0.193016
          0.208870
          0.024092
          0.200854
          0.186623
          0.192624
          0.184213
          0.189339
          0.176182
          0.135238
          0.231489
          0.112258
          0.144078
          0.132422
          0.230764
          0.138381
          0.123663
          0.234559
          0.126620
          0.144503
          0.128633
          0.144902
          0.222108
          0.213063
          0.140202
          0.160041
          0.157603
          0.170100
          0.162560
          0.194505
          0.189253
          0.164806
          0.174434
          0.131301
          0.080389
          0.114586
          0.113057
          0.114465
          0.095428
          0.112376
          0.100804
          0.028365
          0.042201
          0.099504
          0.103235
          0.042084
          0.042249
          0.045699
          0.032647
          0.041997
          0.027656
          0.042671
          0.033148
          0.028284
          0.046250
          0.041912
          0.040847
          0.037416
          0.035876
          0.080317
          0.039233
          0.099973
          0.026652
          0.024487
          0.068388
          0.112487
          0.066767
          0.025039
          0.110559
          0.065726
          0.039633
          0.097129
          0.108534
          0.098346
          0.105935
          0.104858
          0.064658
          0.078645
          0.064752
          0.078112
          0.074446
          0.062306
          0.138920
          0.188179
          0.173378
          0.221090
          0.237148
          0.237712
          0.223804
          0.227818
          0.235385
          0.210325
          0.024302
          0.197069
          0.208495
          0.173066
          0.187424
          0.233591
          0.238541
          0.215262
          0.239463
          0.238128
          0.233561
          0.232264
          0.226047
          0.212026
          0.207948
          0.196044
          0.143627
          0.160614
          0.129623
          0.166456
          0.148661
          0.105144
          0.118243
          0.081350
          0.029078
          0.095083
          0.038264
          0.064877
          0.039512
          0.109461
        </DataArray>
        <DataArray type="Float32" Name="2T" Format="ascii">
          0.000000
          0.000000
          0.000000
          0.000000
          0.000000
          0.000000
          0.000000
          0.000000
          0.000000
          0.000000
          0.000000
          0.000000
          0.000000
          0.000000
          0.000000
          0.000000
          0.000000
          0.000000
          0.000000
          0.000000
          0.000000
          0.000000
          0.000000
          0.000000
          0.000000
          0.000000
          0.000000
          0.000000
          0.000000
          0.000000
          0.000000
          0.000000
          0.000000
          0.000000
          0.000000
          0.000000
          0.000000
          0.000000
          0.000000
          0.000000
          0.000000
          0.000000
          0.000000
          0.000000
          0.000000
          0.000000
          0.000000
          0.000000
          0.000000
          0.000000
          0.000000
          0.000000
          0.000000
          0.000000
          0.000000
          0.000000
          0.000000
          0.000000
          0.000000
          0.000000
          0.000000
          0.000000
          0.000000
          0.000000
          0.000000
          0.000000
          0.000000
          0.000000
          0.000000
          0.000000
          0.000000
          0.000000
          0.000000
          0.000000
          0.000000
          0.000000
          0.000000
          0.000000
          0.000000
          0.000000
          0.000000
          0.000000
          0.000000
          0.000000
          0.000000
          0.000000
          0.000000
          0.000000
          0.000000
          0.000000
          0.000000
          0.000000
          0.000000
          0.000000
          0.000000
          0.000000
          0.000000
          0.000000
          0.000000
          0.000000
          0.000000
          0.000000
          0.000000
          0.000000
          0.000000
          0.000000
          0.000000
          0.000000
          0.000000
          0.000000
          0.000000
          0.000000
          0.000000
          0.000000
          0.000000
          0.000000
          0.000000
          0.000000
          0.000000
          0.000000
          0.000000
          0.000000
          0.000000
          0.000000
          0.000000
          0.000000
          0.000000
          0.000000
          0.000000
          0.000000
          0.000000
          0.000000
          0.000000
          0.000000
          0.000000
          0.000000
          0.000000
          0.000000
          0.000000
          0.000000
          0.000000
          0.000000
          0.000000
          0.000000
          0.000000
          0.000000
          0.000000
          0.000000
          0.000000
          0.000000
          0.000000
          0.000000
          0.000000
          0.000000
          0.000000
          0.000000
          0.000000
          0.000000
          0.000000
          0.000000
          0.000000
          0.000000
          0.000000
          0.000000
          0.000000
          0.000000
          0.000000
          0.000000
          0.000000
          0.000000
          0.000000
          0.000000
          0.000000
          0.000000
          0.000000
          0.000000
          0.000000
          0.000000
          0.000000
          0.000000
          0.000000
          0.000000
          0.000000
          0.000000
          0.000000
          0.000000
          0.000000
          0.000000
          0.000000
          0.000000
          0.000000
          0.000000
          0.000000
        </DataArray>
      </CellData>
    </Piece>
  </UnstructuredGrid>
</VTKFile>