<VTKFile type="UnstructuredGrid" version="0.1" byte_order="BigEndian">
  <UnstructuredGrid>
    <Piece NumberOfPoints="237" NumberOfCells="196">
      <Points>
        <DataArray type="Float32" NumberOfComponents="3" Format="ascii">
          0.099031 0.566116 0.0
          0.895385 0.895916 0.0
          0.888036 1.993712 0.0
          1.623490 1.781831 0.0
          1.532032 1.846724 0.0
          1.433884 1.900969 0.0
          1.330279 1.943883 0.0
          1.222521 1.974928 0.0
          1.111964 1.993712 0.0
          1.000000 2.000000 0.0
          0.777479 1.974928 0.0
          0.669721 1.943883 0.0
          0.566116 1.900969 0.0
          0.467968 1.846724 0.0
          0.376510 1.781831 0.0
          0.292893 1.707107 0.0
          0.218169 1.623490 0.0
          0.153276 1.532032 0.0
          0.099031 1.433884 0.0
          0.056117 1.330279 0.0
          0.025072 1.222521 0.0
          0.006288 1.111964 0.0
          0.000000 1.000000 0.0
          0.006288 0.888036 0.0
          0.025072 0.777479 0.0
          0.056117 0.669721 0.0
          0.153276 0.467968 0.0
          0.218169 0.376510 0.0
          0.292893 0.292893 0.0
          0.376510 0.218169 0.0
          0.467968 0.153276 0.0
          0.566116 0.099031 0.0
          0.669721 0.056117 0.0
          0.777479 0.025072 0.0
          0.888036 0.006288 0.0
          1.000000 0.000000 0.0
          1.111964 0.006288 0.0
          1.222521 0.025072 0.0
          1.330279 0.056117 0.0
          0.850417 1.893346 0.0
          0.737170 1.854640 0.0
          0.665170 1.442616 0.0
          0.765584 1.393148 0.0
          0.888076 1.007819 0.0
          0.772893 1.281245 0.0
          0.880767 1.119721 0.0
          0.648856 1.769975 0.0
          0.653224 1.665425 0.0
          0.873458 1.231624 0.0
          0.658166 1.554464 0.0
          0.422966 0.696519 0.0
          0.515052 0.758695 0.0
          0.198680 0.568549 0.0
          0.282618 0.566332 0.0
          0.608308 0.820976 0.0
          0.708873 0.771354 0.0
          0.701564 0.883257 0.0
          0.794820 0.945538 0.0
          0.344742 0.633789 0.0
          0.995949 0.846295 0.0
          1.547032 1.568752 0.0
          1.598204 1.674359 0.0
          1.026713 1.811832 0.0
          1.135368 1.757550 0.0
          1.149219 1.883099 0.0
          0.743688 1.731383 0.0
          1.048666 1.918781 0.0
          0.836791 1.793005 0.0
          1.243420 1.807864 0.0
          1.331899 1.753476 0.0
          1.342654 1.851623 0.0
          1.508102 1.655558 0.0
          1.257729 1.894598 0.0
          0.955433 1.905262 0.0
          0.843792 1.678747 0.0
          0.935020 1.736726 0.0
          0.917487 1.824718 0.0
          1.074587 1.132381 0.0
          1.175152 1.082759 0.0
          1.167843 1.194662 0.0
          1.081896 1.020478 0.0
          1.268408 1.145040 0.0
          0.988641 0.958197 0.0
          0.974023 1.182002 0.0
          0.981332 1.070100 0.0
          0.750882 1.616858 0.0
          0.758348 1.504958 0.0
          0.851459 1.567250 0.0
          0.858828 1.455415 0.0
          0.952082 1.517694 0.0
          0.959405 1.405807 0.0
          1.059969 1.356186 0.0
          1.052660 1.468088 0.0
          0.944786 1.629612 0.0
          1.045351 1.579991 0.0
          0.966714 1.293905 0.0
          1.153225 1.418467 0.0
          0.866149 1.343526 0.0
          1.440302 1.493407 0.0
          1.429957 1.601377 0.0
          1.354355 1.319224 0.0
          1.447611 1.381505 0.0
          1.347046 1.431126 0.0
          1.239172 1.592650 0.0
          1.330368 1.650856 0.0
          1.232321 1.703866 0.0
          1.067278 1.244283 0.0
          1.454920 1.269603 0.0
          1.339737 1.543029 0.0
          1.361664 1.207322 0.0
          1.542104 1.444009 0.0
          1.261099 1.256943 0.0
          1.253790 1.368845 0.0
          1.160534 1.306564 0.0
          1.246481 1.480748 0.0
          1.145916 1.530369 0.0
          1.431520 1.801823 0.0
          1.138607 1.642272 0.0
          1.038042 1.691893 0.0
          1.425482 1.700778 0.0
          1.518613 1.742751 0.0
          0.348087 1.599150 0.0
          0.262823 1.514589 0.0
          0.211194 1.132177 0.0
          0.102279 1.060904 0.0
          0.206213 1.017061 0.0
          0.107788 1.164631 0.0
          0.122885 0.747308 0.0
          0.234593 0.672031 0.0
          0.221334 0.796521 0.0
          0.146472 0.645403 0.0
          0.116935 0.957451 0.0
          0.284351 1.303525 0.0
          0.276551 1.409094 0.0
          0.172189 1.346588 0.0
          0.640771 1.861240 0.0
          0.559392 1.600219 0.0
          0.559089 1.705032 0.0
          0.449790 1.640153 0.0
          0.111425 0.849025 0.0
          0.212629 0.907829 0.0
          0.383290 1.694203 0.0
          0.465155 1.744582 0.0
          0.369764 1.475963 0.0
          0.198146 1.240907 0.0
          0.191855 1.446646 0.0
          0.780202 1.169343 0.0
          0.694255 0.995159 0.0
          0.787511 1.057440 0.0
          0.679637 1.218964 0.0
          0.586381 1.156683 0.0
          0.686946 1.107062 0.0
          0.463207 1.538921 0.0
          0.471224 1.429380 0.0
          0.564905 1.491677 0.0
          0.571763 1.380488 0.0
          0.313801 0.857983 0.0
          0.325419 0.746318 0.0
          0.306614 0.969840 0.0
          0.301380 1.081878 0.0
          0.393501 1.144029 0.0
          0.295566 1.193545 0.0
          0.407178 0.920219 0.0
          0.399869 1.032121 0.0
          0.385251 1.255926 0.0
          0.500434 0.982500 0.0
          0.672328 1.330867 0.0
          0.579072 1.268586 0.0
          0.507743 0.870597 0.0
          0.378326 1.367254 0.0
          0.493125 1.094402 0.0
          0.485816 1.206305 0.0
          0.478507 1.318207 0.0
          0.414487 0.808316 0.0
          0.600999 0.932878 0.0
          0.593690 1.044781 0.0
          0.108986 1.256697 0.0
          0.559546 1.805427 0.0
          0.438710 0.475802 0.0
          0.352294 0.523306 0.0
          0.343013 0.406820 0.0
          0.455294 0.372762 0.0
          0.939926 0.229230 0.0
          0.852755 0.184104 0.0
          0.945367 0.114512 0.0
          1.028262 0.192164 0.0
          0.745229 0.115672 0.0
          0.749370 0.222575 0.0
          0.844236 0.085916 0.0
          1.203269 0.203705 0.0
          1.261571 0.133219 0.0
          0.550485 0.318002 0.0
          0.468998 0.256431 0.0
          0.383398 0.309178 0.0
          0.257461 0.480071 0.0
          1.114003 0.169530 0.0
          1.161777 0.105856 0.0
          1.055494 0.094084 0.0
          0.650486 0.266057 0.0
          0.640036 0.374679 0.0
          1.223577 0.303699 0.0
          1.219040 0.411313 0.0
          0.630235 0.485267 0.0
          0.731219 0.436049 0.0
          0.540257 0.429008 0.0
          0.723491 0.547549 0.0
          0.522361 0.646792 0.0
          0.530216 0.535893 0.0
          0.622926 0.597171 0.0
          0.824056 0.497927 0.0
          0.431937 0.584858 0.0
          0.831757 0.387129 0.0
          0.924621 0.448306 0.0
          1.025187 0.398684 0.0
          0.931610 0.336883 0.0
          1.017877 0.510587 0.0
          1.118442 0.460966 0.0
          1.111127 0.572878 0.0
          0.917312 0.560209 0.0
          1.211682 0.523276 0.0
          1.010567 0.622491 0.0
          1.103821 0.684775 0.0
          1.125757 0.349058 0.0
          1.121213 0.251842 0.0
          1.003258 0.734393 0.0
          0.902694 0.784014 0.0
          0.910003 0.672112 0.0
          0.802129 0.833635 0.0
          0.809438 0.721733 0.0
          0.816747 0.609830 0.0
          0.559823 0.207093 0.0
          0.716182 0.659452 0.0
          0.615617 0.709073 0.0
          0.740232 0.325057 0.0
          0.841342 0.280271 0.0
          1.030573 0.289662 0.0
          0.656791 0.161091 0.0
        </DataArray>
      </Points>
      <Cells>
        <DataArray type="Int32" Name="connectivity" Format="ascii">
          16  121  15  
          122  121  16  
          123  124  125  
          126  124  123  
          127  128  129  
          130  128  127  
          23  131  22  
          132  133  134  
          52  53  128  
          40  135  46  
          136  137  138  
          52  128  130  
          139  131  23  
          139  129  140  
          121  141  15  
          138  137  142  
          143  121  122  
          126  123  144  
          133  145  134  
          134  144  132  
          44  146  48  
          48  146  45  
          57  147  56  
          148  147  57  
          149  146  44  
          150  151  149  
          152  143  153  
          152  153  154  
          43  57  1  
          154  153  155  
          152  121  143  
          146  151  148  
          149  151  146  
          155  41  154  
          154  41  49  
          156  129  157  
          140  156  158  
          159  160  161  
          158  156  162  
          163  160  159  
          140  129  156  
          136  152  154  
          132  161  164  
          163  162  165  
          163  158  162  
          166  167  149  
          24  139  23  
          42  166  44  
          165  162  168  
          163  159  158  
          166  155  167  
          54  55  56  
          14  142  13  
          19  134  18  
          125  140  158  
          169  132  164  
          161  160  164  
          170  160  163  
          11  40  10  
          0  130  25  
          167  171  150  
          172  164  171  
          168  162  173  
          172  169  164  
          170  163  165  
          159  125  158  
          162  156  173  
          153  143  169  
          168  54  174  
          54  56  174  
          47  136  49  
          172  153  169  
          170  165  175  
          155  153  172  
          136  154  49  
          167  150  149  
          21  126  20  
          167  172  171  
          171  170  150  
          165  168  174  
          17  122  16  
          170  175  150  
          168  173  51  
          168  51  54  
          166  41  155  
          156  157  173  
          166  149  44  
          165  174  175  
          45  146  148  
          155  172  167  
          148  57  43  
          164  160  171  
          171  160  170  
          42  41  166  
          45  148  43  
          148  151  147  
          56  147  174  
          174  147  175  
          175  151  150  
          147  151  175  
          157  50  173  
          173  50  51  
          157  58  50  
          125  124  131  
          139  127  129  
          144  176  126  
          140  131  139  
          122  133  143  
          131  124  22  
          143  133  169  
          169  133  132  
          125  131  140  
          159  123  125  
          136  138  152  
          132  144  161  
          129  128  157  
          144  123  161  
          128  53  58  
          40  39  10  
          130  127  25  
          0  52  130  
          25  127  24  
          10  39  2  
          24  127  139  
          22  124  21  
          161  123  159  
          21  124  126  
          13  177  12  
          134  145  18  
          17  145  122  
          152  138  121  
          46  137  47  
          126  176  20  
          19  176  134  
          14  141  142  
          47  137  136  
          11  135  40  
          122  145  133  
          177  135  12  
          142  177  13  
          134  176  144  
          18  145  17  
          46  135  177  
          157  128  58  
          20  176  19  
          15  141  14  
          142  141  138  
          177  137  46  
          12  135  11  
          138  141  121  
          142  137  177  
          40  46  65  
          65  67  40  
          206  50  210  
          1  227  225  
          1  225  59  
          82  1  59  
          55  227  56  
          56  227  57  
          48  45  83  
          228  227  55  
          83  45  84  
          41  86  49  
          49  86  85  
          97  44  48  
          2  73  9  
          65  46  47  
          97  88  42  
          231  55  232  
          65  47  85  
          51  206  232  
          97  42  44  
          95  97  48  
          95  48  83  
          228  55  231  
          232  55  54  
          51  232  54  
          47  49  85  
          42  86  41  
          88  86  42  
          43  1  82  
          84  45  43  
          84  43  82  
          57  227  1  
          51  50  206  
          50  58  210  
          58  179  210  
          67  39  40  
          26  52  0  
          2  39  73  
          194  52  26  
          67  76  39  
          58  53  179  
          39  76  73  
          194  53  52  
          179  53  194  
                  </DataArray>
        <DataArray type="Int32" Name="offsets" Format="ascii">
          3  6  9  12  15  18  21  24  27  30  33  36  39  42  45  48  51  54  57  60  63  66  69  72  75  78  81  84  87  90  93  96  99  102  105  108  111  114  117  120  123  126  129  132  135  138  141  144  147  150  153  156  159  162  165  168  171  174  177  180  183  186  189  192  195  198  201  204  207  210  213  216  219  222  225  228  231  234  237  240  243  246  249  252  255  258  261  264  267  270  273  276  279  282  285  288  291  294  297  300  303  306  309  312  315  318  321  324  327  330  333  336  339  342  345  348  351  354  357  360  363  366  369  372  375  378  381  384  387  390  393  396  399  402  405  408  411  414  417  420  423  426  429  432  435  438  441  444  447  450  453  456  459  462  465  468  471  474  477  480  483  486  489  492  495  498  501  504  507  510  513  516  519  522  525  528  531  534  537  540  543  546  549  552  555  558  561  564  567  570  573  576  579  582  585  588  
        </DataArray>
        <DataArray type="Int32" Name="types" Format="ascii">
          5  5  5  5  5  5  5  5  5  5  5  5  5  5  5  5  5  5  5  5  5  5  5  5  5  5  5  5  5  5  5  5  5  5  5  5  5  5  5  5  5  5  5  5  5  5  5  5  5  5  5  5  5  5  5  5  5  5  5  5  5  5  5  5  5  5  5  5  5  5  5  5  5  5  5  5  5  5  5  5  5  5  5  5  5  5  5  5  5  5  5  5  5  5  5  5  5  5  5  5  5  5  5  5  5  5  5  5  5  5  5  5  5  5  5  5  5  5  5  5  5  5  5  5  5  5  5  5  5  5  5  5  5  5  5  5  5  5  5  5  5  5  5  5  5  5  5  5  5  5  5  5  5  5  5  5  5  5  5  5  5  5  5  5  5  5  5  5  5  5  5  5  5  5  5  5  5  5  5  5  5  5  5  5  5  5  5  5  5  5  5  5  5  5  5  5  
        </DataArray>
      </Cells>
      <CellData Scalars="scalars">
        <DataArray type="Float32" Name="rank" Format="ascii">
          1
          1
          1
          1
          1
          1
          1
          1
          1
          1
          1
          1
          1
          1
          1
          1
          1
          1
          1
          1
          1
          1
          1
          1
          1
          1
          1
          1
          1
          1
          1
          1
          1
          1
          1
          1
          1
          1
          1
          1
          1
          1
          1
          1
          1
          1
          1
          1
          1
          1
          1
          1
          1
          1
          1
          1
          1
          1
          1
          1
          1
          1
          1
          1
          1
          1
          1
          1
          1
          1
          1
          1
          1
          1
          1
          1
          1
          1
          1
          1
          1
          1
          1
          1
          1
          1
          1
          1
          1
          1
          1
          1
          1
          1
          1
          1
          1
          1
          1
          1
          1
          1
          1
          1
          1
          1
          1
          1
          1
          1
          1
          1
          1
          1
          1
          1
          1
          1
          1
          1
          1
          1
          1
          1
          1
          1
          1
          1
          1
          1
          1
          1
          1
          1
          1
          1
          1
          1
          1
          1
          1
          1
          1
          1
          1
          1
          1
          1
          1
          1
          1
          1
          1
          1
          1
          1
          1
          1
          1
          1
          1
          1
          1
          1
          1
          1
          1
          1
          1
          1
          1
          1
          1
          1
          1
          1
          1
          1
          1
          1
          1
          1
          1
          1
          1
          1
          1
          1
          1
          1
          1
          1
          1
          1
          1
          1
        </DataArray>
        <DataArray type="Float32" Name="T" Format="ascii">
          0.033086
          0.047534
          0.086791
          0.071627
          0.078923
          0.062234
          0.034123
          0.084524
          0.074446
          0.061249
          0.094918
          0.062306
          0.047780
          0.085886
          0.041921
          0.072563
          0.076108
          0.079642
          0.065032
          0.083719
          0.221255
          0.228681
          0.223804
          0.227818
          0.215430
          0.208399
          0.117644
          0.132202
          0.235385
          0.151166
          0.093492
          0.224449
          0.217037
          0.162803
          0.155474
          0.118489
          0.123014
          0.136814
          0.143425
          0.149871
          0.110287
          0.125211
          0.124256
          0.170522
          0.153206
          0.196489
          0.030195
          0.200722
          0.178069
          0.142911
          0.183313
          0.210325
          0.025582
          0.030163
          0.112494
          0.125200
          0.140642
          0.167036
          0.030989
          0.024302
          0.186587
          0.158866
          0.168371
          0.142687
          0.177375
          0.122615
          0.151031
          0.122067
          0.197069
          0.208495
          0.126693
          0.141086
          0.191738
          0.155601
          0.136784
          0.198112
          0.028511
          0.173361
          0.185399
          0.192414
          0.030386
          0.195739
          0.173066
          0.187424
          0.178850
          0.138759
          0.205165
          0.199223
          0.230244
          0.171716
          0.233591
          0.157748
          0.171052
          0.187580
          0.234835
          0.223243
          0.215262
          0.210659
          0.207209
          0.214644
          0.143627
          0.160614
          0.129623
          0.075848
          0.069749
          0.062025
          0.075774
          0.082918
          0.047952
          0.104838
          0.106243
          0.089665
          0.110483
          0.103595
          0.104545
          0.103086
          0.101839
          0.095083
          0.044800
          0.038120
          0.038264
          0.027105
          0.028880
          0.042384
          0.030675
          0.117639
          0.043779
          0.025180
          0.040872
          0.040780
          0.086199
          0.093567
          0.038435
          0.040284
          0.036044
          0.106088
          0.039201
          0.064838
          0.034804
          0.037973
          0.063666
          0.024797
          0.057546
          0.109461
          0.023764
          0.023299
          0.058948
          0.071789
          0.021955
          0.063911
          0.062184
          0.082674
          0.087799
          0.147403
          0.230769
          0.233852
          0.237712
          0.219004
          0.225649
          0.231875
          0.218295
          0.236552
          0.164293
          0.154192
          0.216965
          0.028551
          0.100616
          0.199657
          0.200124
          0.121825
          0.176960
          0.206692
          0.220252
          0.227711
          0.208870
          0.200854
          0.189339
          0.135205
          0.180379
          0.186478
          0.238541
          0.237978
          0.239877
          0.231489
          0.162560
          0.131301
          0.114465
          0.071041
          0.027656
          0.042603
          0.041912
          0.079280
          0.098346
          0.066520
          0.064658
          0.078645
        </DataArray>
        <DataArray type="Float32" Name="2T" Format="ascii">
          0.000000
          0.000000
          0.000000
          0.000000
          0.000000
          0.000000
          0.000000
          0.000000
          0.000000
          0.000000
          0.000000
          0.000000
          0.000000
          0.000000
          0.000000
          0.000000
          0.000000
          0.000000
          0.000000
          0.000000
          0.000000
          0.000000
          0.000000
          0.000000
          0.000000
          0.000000
          0.000000
          0.000000
          0.000000
          0.000000
          0.000000
          0.000000
          0.000000
          0.000000
          0.000000
          0.000000
          0.000000
          0.000000
          0.000000
          0.000000
          0.000000
          0.000000
          0.000000
          0.000000
          0.000000
          0.000000
          0.000000
          0.000000
          0.000000
          0.000000
          0.000000
          0.000000
          0.000000
          0.000000
          0.000000
          0.000000
          0.000000
          0.000000
          0.000000
          0.000000
          0.000000
          0.000000
          0.000000
          0.000000
          0.000000
          0.000000
          0.000000
          0.000000
          0.000000
          0.000000
          0.000000
          0.000000
          0.000000
          0.000000
          0.000000
          0.000000
          0.000000
          0.000000
          0.000000
          0.000000
          0.000000
          0.000000
          0.000000
          0.000000
          0.000000
          0.000000
          0.000000
          0.000000
          0.000000
          0.000000
          0.000000
          0.000000
          0.000000
          0.000000
          0.000000
          0.000000
          0.000000
          0.000000
          0.000000
          0.000000
          0.000000
          0.000000
          0.000000
          0.000000
          0.000000
          0.000000
          0.000000
          0.000000
          0.000000
          0.000000
          0.000000
          0.000000
          0.000000
          0.000000
          0.000000
          0.000000
          0.000000
          0.000000
          0.000000
          0.000000
          0.000000
          0.000000
          0.000000
          0.000000
          0.000000
          0.000000
          0.000000
          0.000000
          0.000000
          0.000000
          0.000000
          0.000000
          0.000000
          0.000000
          0.000000
          0.000000
          0.000000
          0.000000
          0.000000
          0.000000
          0.000000
          0.000000
          0.000000
          0.000000
          0.000000
          0.000000
          0.000000
          0.000000
          0.000000
          0.000000
          0.000000
          0.000000
          0.000000
          0.000000
          0.000000
          0.000000
          0.000000
          0.000000
          0.000000
          0.000000
          0.000000
          0.000000
          0.000000
          0.000000
          0.000000
          0.000000
          0.000000
          0.000000
          0.000000
          0.000000
          0.000000
          0.000000
          0.000000
          0.000000
          0.000000
          0.000000
          0.000000
          0.000000
          0.000000
          0.000000
          0.000000
          0.000000
          0.000000
          0.000000
          0.000000
          0.000000
          0.000000
          0.000000
          0.000000
          0.000000
          0.000000
          0.000000
          0.000000
          0.000000
          0.000000
          0.000000
        </DataArray>
      </CellData>
    </Piece>
  </UnstructuredGrid>
</VTKFile>