<VTKFile type="UnstructuredGrid" version="0.1" byte_order="BigEndian">
  <UnstructuredGrid>
    <Piece NumberOfPoints="237" NumberOfCells="191">
      <Points>
        <DataArray type="Float32" NumberOfComponents="3" Format="ascii">
          1.000000 1.000000 0.0
          2.000000 1.000000 0.0
          1.707107 1.707107 0.0
          1.433884 0.099031 0.0
          1.089205 0.908576 0.0
          1.993712 1.111964 0.0
          1.974928 1.222521 0.0
          1.943883 1.330279 0.0
          1.900969 1.433884 0.0
          1.846724 1.532032 0.0
          1.781831 1.623490 0.0
          1.532032 0.153276 0.0
          1.623490 0.218169 0.0
          1.707107 0.292893 0.0
          1.781831 0.376510 0.0
          1.846724 0.467968 0.0
          1.900969 0.566116 0.0
          1.943883 0.669721 0.0
          1.974928 0.777479 0.0
          1.993712 0.888036 0.0
          1.623490 1.781831 0.0
          1.532032 1.846724 0.0
          1.433884 1.900969 0.0
          1.330279 1.943883 0.0
          1.222521 1.974928 0.0
          1.111964 1.993712 0.0
          1.000000 2.000000 0.0
          0.153276 0.467968 0.0
          0.218169 0.376510 0.0
          0.292893 0.292893 0.0
          0.376510 0.218169 0.0
          0.467968 0.153276 0.0
          0.566116 0.099031 0.0
          0.669721 0.056117 0.0
          0.777479 0.025072 0.0
          0.888036 0.006288 0.0
          1.000000 0.000000 0.0
          1.111964 0.006288 0.0
          1.222521 0.025072 0.0
          1.330279 0.056117 0.0
          1.354476 0.146713 0.0
          1.312237 0.473684 0.0
          1.304888 0.585642 0.0
          1.204375 0.635173 0.0
          1.197078 0.747054 0.0
          1.096514 0.796675 0.0
          1.317529 0.240945 0.0
          1.319350 0.362750 0.0
          1.275717 1.033138 0.0
          1.368973 1.095419 0.0
          1.639777 1.497664 0.0
          1.669540 1.598926 0.0
          1.462229 1.157700 0.0
          1.555485 1.219981 0.0
          1.548176 1.331884 0.0
          1.182461 0.970857 0.0
          1.640762 1.382793 0.0
          0.995949 0.846295 0.0
          1.547032 1.568752 0.0
          1.598204 1.674359 0.0
          1.026713 1.811832 0.0
          1.135368 1.757550 0.0
          1.149219 1.883099 0.0
          0.743688 1.731383 0.0
          1.048666 1.918781 0.0
          0.836791 1.793005 0.0
          1.243420 1.807864 0.0
          1.331899 1.753476 0.0
          1.342654 1.851623 0.0
          1.508102 1.655558 0.0
          1.257729 1.894598 0.0
          0.955433 1.905262 0.0
          0.843792 1.678747 0.0
          0.935020 1.736726 0.0
          0.917487 1.824718 0.0
          1.074587 1.132381 0.0
          1.175152 1.082759 0.0
          1.167843 1.194662 0.0
          1.081896 1.020478 0.0
          1.268408 1.145040 0.0
          0.988641 0.958197 0.0
          0.974023 1.182002 0.0
          0.981332 1.070100 0.0
          0.750882 1.616858 0.0
          0.758348 1.504958 0.0
          0.851459 1.567250 0.0
          0.858828 1.455415 0.0
          0.952082 1.517694 0.0
          0.959405 1.405807 0.0
          1.059969 1.356186 0.0
          1.052660 1.468088 0.0
          0.944786 1.629612 0.0
          1.045351 1.579991 0.0
          0.966714 1.293905 0.0
          1.153225 1.418467 0.0
          0.866149 1.343526 0.0
          1.440302 1.493407 0.0
          1.429957 1.601377 0.0
          1.354355 1.319224 0.0
          1.447611 1.381505 0.0
          1.347046 1.431126 0.0
          1.239172 1.592650 0.0
          1.330368 1.650856 0.0
          1.232321 1.703866 0.0
          1.067278 1.244283 0.0
          1.454920 1.269603 0.0
          1.339737 1.543029 0.0
          1.361664 1.207322 0.0
          1.542104 1.444009 0.0
          1.261099 1.256943 0.0
          1.253790 1.368845 0.0
          1.160534 1.306564 0.0
          1.246481 1.480748 0.0
          1.145916 1.530369 0.0
          1.431520 1.801823 0.0
          1.138607 1.642272 0.0
          1.038042 1.691893 0.0
          1.425482 1.700778 0.0
          1.518613 1.742751 0.0
          1.865129 0.959256 0.0
          1.733417 1.421307 0.0
          1.743290 1.522186 0.0
          1.876351 0.842209 0.0
          1.757863 1.239234 0.0
          1.868800 1.244851 0.0
          1.824546 1.348542 0.0
          1.772098 0.896090 0.0
          1.778526 0.786134 0.0
          1.912543 1.052686 0.0
          1.608894 0.334151 0.0
          1.600319 0.443807 0.0
          1.510808 0.379288 0.0
          1.723764 1.330952 0.0
          1.693035 0.400439 0.0
          1.871041 0.736631 0.0
          1.684458 0.723265 0.0
          1.690553 0.612450 0.0
          1.780630 0.678171 0.0
          1.759020 1.008366 0.0
          1.412829 0.424012 0.0
          1.484164 0.821992 0.0
          1.390855 0.759770 0.0
          1.491223 0.710342 0.0
          1.584634 0.772448 0.0
          1.590987 0.661261 0.0
          1.398078 0.648014 0.0
          1.297635 0.697455 0.0
          1.405127 0.536524 0.0
          1.498327 0.598890 0.0
          1.283026 0.921236 0.0
          1.376282 0.983517 0.0
          1.189770 0.858955 0.0
          1.290333 0.809338 0.0
          1.383592 0.871615 0.0
          1.751035 1.120872 0.0
          1.662541 1.058379 0.0
          1.656050 1.170360 0.0
          1.469538 1.045798 0.0
          1.476847 0.933895 0.0
          1.570103 0.996176 0.0
          1.562794 1.108079 0.0
          1.577413 0.884276 0.0
          1.670668 0.946555 0.0
          1.793112 0.560190 0.0
          1.646973 1.278681 0.0
          1.677978 0.834655 0.0
          1.899230 1.147963 0.0
          1.521562 0.264927 0.0
          1.596426 0.552898 0.0
          1.503703 0.489996 0.0
          1.814507 1.176361 0.0
          1.420820 0.314206 0.0
          1.429116 0.204252 0.0
          1.689048 0.506068 0.0
          1.826251 1.069097 0.0
          1.863471 0.642339 0.0
          1.815150 1.452576 0.0
          1.763427 0.459348 0.0
          0.438710 0.475802 0.0
          0.352294 0.523306 0.0
          0.343013 0.406820 0.0
          0.455294 0.372762 0.0
          0.939926 0.229230 0.0
          0.852755 0.184104 0.0
          0.945367 0.114512 0.0
          1.028262 0.192164 0.0
          0.745229 0.115672 0.0
          0.749370 0.222575 0.0
          0.844236 0.085916 0.0
          1.203269 0.203705 0.0
          1.261571 0.133219 0.0
          0.550485 0.318002 0.0
          0.468998 0.256431 0.0
          0.383398 0.309178 0.0
          0.257461 0.480071 0.0
          1.114003 0.169530 0.0
          1.161777 0.105856 0.0
          1.055494 0.094084 0.0
          0.650486 0.266057 0.0
          0.640036 0.374679 0.0
          1.223577 0.303699 0.0
          1.219040 0.411313 0.0
          0.630235 0.485267 0.0
          0.731219 0.436049 0.0
          0.540257 0.429008 0.0
          0.723491 0.547549 0.0
          0.522361 0.646792 0.0
          0.530216 0.535893 0.0
          0.622926 0.597171 0.0
          0.824056 0.497927 0.0
          0.431937 0.584858 0.0
          0.831757 0.387129 0.0
          0.924621 0.448306 0.0
          1.025187 0.398684 0.0
          0.931610 0.336883 0.0
          1.017877 0.510587 0.0
          1.118442 0.460966 0.0
          1.111127 0.572878 0.0
          0.917312 0.560209 0.0
          1.211682 0.523276 0.0
          1.010567 0.622491 0.0
          1.103821 0.684775 0.0
          1.125757 0.349058 0.0
          1.121213 0.251842 0.0
          1.003258 0.734393 0.0
          0.902694 0.784014 0.0
          0.910003 0.672112 0.0
          0.802129 0.833635 0.0
          0.809438 0.721733 0.0
          0.816747 0.609830 0.0
          0.559823 0.207093 0.0
          0.716182 0.659452 0.0
          0.615617 0.709073 0.0
          0.740232 0.325057 0.0
          0.841342 0.280271 0.0
          1.030573 0.289662 0.0
          0.656791 0.161091 0.0
        </DataArray>
      </Points>
      <Cells>
        <DataArray type="Int32" Name="connectivity" Format="ascii">
          1  119  19  
          56  120  50  
          50  120  121  
          19  119  122  
          123  124  125  
          126  127  122  
          1  128  119  
          129  130  131  
          125  132  123  
          122  119  126  
          133  130  129  
          127  134  122  
          135  136  137  
          126  119  138  
          41  47  139  
          140  141  142  
          135  143  144  
          144  143  142  
          142  141  145  
          42  145  146  
          147  145  42  
          145  141  146  
          142  143  140  
          148  145  147  
          149  48  55  
          150  48  149  
          151  149  55  
          152  149  151  
          44  152  151  
          152  153  149  
          138  154  155  
          155  154  156  
          157  158  159  
          157  159  160  
          160  155  156  
          158  161  159  
          161  162  159  
          16  163  15  
          156  164  53  
          157  49  150  
          10  121  9  
          52  157  160  
          53  164  54  
          165  126  162  
          8  125  7  
          6  166  5  
          164  56  54  
          160  156  53  
          156  123  164  
          14  133  13  
          157  150  158  
          126  138  162  
          165  127  126  
          19  122  18  
          161  165  162  
          138  155  162  
          165  135  127  
          52  160  53  
          156  154  123  
          12  167  11  
          162  155  159  
          52  49  157  
          159  155  160  
          158  140  161  
          151  55  4  
          49  48  150  
          151  4  45  
          44  151  45  
          149  153  150  
          150  153  158  
          146  152  44  
          158  153  140  
          146  44  43  
          42  146  43  
          142  145  148  
          144  142  148  
          168  144  148  
          146  141  152  
          153  141  140  
          152  141  153  
          169  168  148  
          147  42  41  
          140  143  161  
          165  143  135  
          169  148  147  
          147  41  139  
          123  170  124  
          161  143  165  
          47  46  171  
          169  147  139  
          131  169  139  
          139  47  171  
          131  139  171  
          137  136  163  
          144  136  135  
          135  137  127  
          131  171  167  
          46  172  171  
          11  172  3  
          167  172  11  
          168  136  144  
          137  134  127  
          168  173  136  
          121  51  50  
          171  172  167  
          136  173  163  
          168  130  173  
          131  130  169  
          164  132  56  
          129  131  167  
          119  174  138  
          173  130  133  
          18  134  17  
          122  134  18  
          56  132  120  
          166  128  5  
          5  128  1  
          13  129  12  
          12  129  167  
          133  129  13  
          7  124  6  
          125  124  7  
          2  51  10  
          10  51  121  
          6  124  166  
          46  40  172  
          128  174  119  
          137  175  134  
          16  175  163  
          121  176  9  
          8  176  125  
          163  177  15  
          14  177  133  
          163  175  137  
          172  40  3  
          120  132  125  
          125  176  120  
          120  176  121  
          169  130  168  
          173  177  163  
          133  177  173  
          166  170  174  
          123  132  164  
          134  175  17  
          138  174  154  
          166  174  128  
          17  175  16  
          174  170  154  
          9  176  8  
          154  170  123  
          15  177  14  
          124  170  166  
          58  51  59  
          50  51  58  
          46  189  190  
          190  40  46  
          200  46  47  
          201  47  41  
          200  47  201  
          221  217  43  
          45  224  221  
          55  76  78  
          4  55  78  
          55  48  76  
          54  99  105  
          107  52  105  
          56  108  54  
          54  108  99  
          53  54  105  
          107  49  52  
          20  59  2  
          52  53  105  
          4  78  80  
          107  79  49  
          57  224  45  
          4  80  57  
          79  48  49  
          76  48  79  
          4  57  45  
          44  45  221  
          44  221  43  
          43  217  219  
          42  43  219  
          219  201  41  
          42  219  41  
          56  50  108  
          108  50  58  
          200  189  46  
          59  51  2  
          39  40  190  
          3  40  39  
                  </DataArray>
        <DataArray type="Int32" Name="offsets" Format="ascii">
          3  6  9  12  15  18  21  24  27  30  33  36  39  42  45  48  51  54  57  60  63  66  69  72  75  78  81  84  87  90  93  96  99  102  105  108  111  114  117  120  123  126  129  132  135  138  141  144  147  150  153  156  159  162  165  168  171  174  177  180  183  186  189  192  195  198  201  204  207  210  213  216  219  222  225  228  231  234  237  240  243  246  249  252  255  258  261  264  267  270  273  276  279  282  285  288  291  294  297  300  303  306  309  312  315  318  321  324  327  330  333  336  339  342  345  348  351  354  357  360  363  366  369  372  375  378  381  384  387  390  393  396  399  402  405  408  411  414  417  420  423  426  429  432  435  438  441  444  447  450  453  456  459  462  465  468  471  474  477  480  483  486  489  492  495  498  501  504  507  510  513  516  519  522  525  528  531  534  537  540  543  546  549  552  555  558  561  564  567  570  573  
        </DataArray>
        <DataArray type="Int32" Name="types" Format="ascii">
          5  5  5  5  5  5  5  5  5  5  5  5  5  5  5  5  5  5  5  5  5  5  5  5  5  5  5  5  5  5  5  5  5  5  5  5  5  5  5  5  5  5  5  5  5  5  5  5  5  5  5  5  5  5  5  5  5  5  5  5  5  5  5  5  5  5  5  5  5  5  5  5  5  5  5  5  5  5  5  5  5  5  5  5  5  5  5  5  5  5  5  5  5  5  5  5  5  5  5  5  5  5  5  5  5  5  5  5  5  5  5  5  5  5  5  5  5  5  5  5  5  5  5  5  5  5  5  5  5  5  5  5  5  5  5  5  5  5  5  5  5  5  5  5  5  5  5  5  5  5  5  5  5  5  5  5  5  5  5  5  5  5  5  5  5  5  5  5  5  5  5  5  5  5  5  5  5  5  5  5  5  5  5  5  5  5  5  5  5  5  5  
        </DataArray>
      </Cells>
      <CellData Scalars="scalars">
        <DataArray type="Float32" Name="rank" Format="ascii">
          3
          3
          3
          3
          3
          3
          3
          3
          3
          3
          3
          3
          3
          3
          3
          3
          3
          3
          3
          3
          3
          3
          3
          3
          3
          3
          3
          3
          3
          3
          3
          3
          3
          3
          3
          3
          3
          3
          3
          3
          3
          3
          3
          3
          3
          3
          3
          3
          3
          3
          3
          3
          3
          3
          3
          3
          3
          3
          3
          3
          3
          3
          3
          3
          3
          3
          3
          3
          3
          3
          3
          3
          3
          3
          3
          3
          3
          3
          3
          3
          3
          3
          3
          3
          3
          3
          3
          3
          3
          3
          3
          3
          3
          3
          3
          3
          3
          3
          3
          3
          3
          3
          3
          3
          3
          3
          3
          3
          3
          3
          3
          3
          3
          3
          3
          3
          3
          3
          3
          3
          3
          3
          3
          3
          3
          3
          3
          3
          3
          3
          3
          3
          3
          3
          3
          3
          3
          3
          3
          3
          3
          3
          3
          3
          3
          3
          3
          3
          3
          3
          3
          3
          3
          3
          3
          3
          3
          3
          3
          3
          3
          3
          3
          3
          3
          3
          3
          3
          3
          3
          3
          3
          3
          3
          3
          3
          3
          3
          3
          3
          3
          3
          3
          3
          3
          3
          3
          3
          3
          3
          3
        </DataArray>
        <DataArray type="Float32" Name="T" Format="ascii">
          0.037934
          0.097580
          0.076841
          0.052753
          0.073663
          0.088908
          0.048589
          0.081939
          0.087253
          0.081870
          0.066698
          0.071490
          0.100567
          0.098255
          0.138920
          0.182813
          0.137643
          0.154250
          0.181533
          0.188179
          0.173378
          0.192263
          0.169189
          0.162589
          0.227119
          0.219356
          0.228610
          0.222378
          0.221090
          0.214593
          0.123398
          0.132083
          0.184668
          0.177493
          0.151008
          0.175454
          0.159010
          0.027308
          0.144605
          0.204467
          0.027986
          0.183838
          0.148244
          0.127294
          0.030909
          0.027770
          0.133023
          0.157339
          0.123991
          0.025922
          0.198164
          0.120644
          0.112054
          0.032858
          0.146834
          0.132967
          0.116497
          0.173808
          0.117779
          0.029898
          0.151876
          0.197345
          0.161123
          0.179778
          0.233561
          0.215072
          0.232264
          0.226047
          0.213092
          0.202476
          0.212026
          0.193314
          0.207948
          0.196044
          0.166652
          0.152992
          0.135435
          0.204209
          0.194823
          0.205489
          0.131663
          0.166456
          0.167672
          0.136062
          0.145099
          0.148661
          0.081245
          0.151146
          0.105144
          0.138132
          0.117838
          0.118243
          0.107707
          0.079064
          0.119726
          0.098895
          0.084107
          0.081350
          0.029078
          0.043857
          0.118794
          0.077060
          0.099035
          0.069950
          0.070934
          0.078435
          0.095800
          0.104952
          0.115909
          0.071249
          0.091813
          0.073718
          0.027770
          0.044909
          0.099029
          0.040621
          0.027479
          0.029514
          0.044178
          0.041154
          0.029709
          0.045238
          0.030598
          0.043551
          0.042512
          0.064877
          0.071936
          0.059130
          0.036639
          0.037246
          0.039671
          0.036339
          0.034622
          0.059496
          0.039512
          0.080436
          0.061916
          0.059808
          0.111751
          0.058643
          0.057096
          0.076103
          0.110426
          0.036339
          0.104530
          0.065082
          0.021635
          0.095373
          0.022479
          0.099373
          0.021247
          0.065989
          0.074116
          0.085922
          0.078813
          0.064704
          0.113693
          0.147069
          0.134995
          0.206426
          0.224543
          0.235749
          0.237148
          0.230692
          0.165437
          0.191049
          0.133522
          0.149568
          0.164551
          0.200942
          0.030022
          0.177412
          0.239463
          0.211650
          0.230764
          0.238128
          0.218656
          0.226512
          0.234559
          0.222108
          0.213063
          0.194505
          0.189253
          0.164806
          0.174434
          0.114852
          0.110075
          0.100804
          0.044949
          0.039233
          0.024487
        </DataArray>
        <DataArray type="Float32" Name="2T" Format="ascii">
          0.000000
          0.000000
          0.000000
          0.000000
          0.000000
          0.000000
          0.000000
          0.000000
          0.000000
          0.000000
          0.000000
          0.000000
          0.000000
          0.000000
          0.000000
          0.000000
          0.000000
          0.000000
          0.000000
          0.000000
          0.000000
          0.000000
          0.000000
          0.000000
          0.000000
          0.000000
          0.000000
          0.000000
          0.000000
          0.000000
          0.000000
          0.000000
          0.000000
          0.000000
          0.000000
          0.000000
          0.000000
          0.000000
          0.000000
          0.000000
          0.000000
          0.000000
          0.000000
          0.000000
          0.000000
          0.000000
          0.000000
          0.000000
          0.000000
          0.000000
          0.000000
          0.000000
          0.000000
          0.000000
          0.000000
          0.000000
          0.000000
          0.000000
          0.000000
          0.000000
          0.000000
          0.000000
          0.000000
          0.000000
          0.000000
          0.000000
          0.000000
          0.000000
          0.000000
          0.000000
          0.000000
          0.000000
          0.000000
          0.000000
          0.000000
          0.000000
          0.000000
          0.000000
          0.000000
          0.000000
          0.000000
          0.000000
          0.000000
          0.000000
          0.000000
          0.000000
          0.000000
          0.000000
          0.000000
          0.000000
          0.000000
          0.000000
          0.000000
          0.000000
          0.000000
          0.000000
          0.000000
          0.000000
          0.000000
          0.000000
          0.000000
          0.000000
          0.000000
          0.000000
          0.000000
          0.000000
          0.000000
          0.000000
          0.000000
          0.000000
          0.000000
          0.000000
          0.000000
          0.000000
          0.000000
          0.000000
          0.000000
          0.000000
          0.000000
          0.000000
          0.000000
          0.000000
          0.000000
          0.000000
          0.000000
          0.000000
          0.000000
          0.000000
          0.000000
          0.000000
          0.000000
          0.000000
          0.000000
          0.000000
          0.000000
          0.000000
          0.000000
          0.000000
          0.000000
          0.000000
          0.000000
          0.000000
          0.000000
          0.000000
          0.000000
          0.000000
          0.000000
          0.000000
          0.000000
          0.000000
          0.000000
          0.000000
          0.000000
          0.000000
          0.000000
          0.000000
          0.000000
          0.000000
          0.000000
          0.000000
          0.000000
          0.000000
          0.000000
          0.000000
          0.000000
          0.000000
          0.000000
          0.000000
          0.000000
          0.000000
          0.000000
          0.000000
          0.000000
          0.000000
          0.000000
          0.000000
          0.000000
          0.000000
          0.000000
          0.000000
          0.000000
          0.000000
          0.000000
          0.000000
          0.000000
          0.000000
          0.000000
          0.000000
          0.000000
          0.000000
          0.000000
        </DataArray>
      </CellData>
    </Piece>
  </UnstructuredGrid>
</VTKFile>