<VTKFile type="UnstructuredGrid" version="0.1" byte_order="BigEndian">
  <UnstructuredGrid>
    <Piece NumberOfPoints="316" NumberOfCells="203">
      <Points>
        <DataArray type="Float32" NumberOfComponents="3" Format="ascii">
          1.707107 1.707107 0.0
          1.089205 0.908576 0.0
          0.895385 0.895916 0.0
          0.888036 1.993712 0.0
          1.993712 1.111964 0.0
          1.974928 1.222521 0.0
          1.943883 1.330279 0.0
          1.900969 1.433884 0.0
          1.846724 1.532032 0.0
          1.781831 1.623490 0.0
          1.532032 0.153276 0.0
          1.623490 0.218169 0.0
          1.707107 0.292893 0.0
          1.781831 0.376510 0.0
          1.846724 0.467968 0.0
          1.900969 0.566116 0.0
          1.943883 0.669721 0.0
          1.974928 0.777479 0.0
          1.993712 0.888036 0.0
          1.623490 1.781831 0.0
          1.532032 1.846724 0.0
          1.433884 1.900969 0.0
          1.330279 1.943883 0.0
          1.222521 1.974928 0.0
          1.111964 1.993712 0.0
          1.000000 2.000000 0.0
          0.777479 1.974928 0.0
          0.669721 1.943883 0.0
          0.566116 1.900969 0.0
          0.467968 1.846724 0.0
          0.376510 1.781831 0.0
          0.292893 1.707107 0.0
          0.218169 1.623490 0.0
          0.153276 1.532032 0.0
          0.099031 1.433884 0.0
          0.056117 1.330279 0.0
          0.025072 1.222521 0.0
          0.006288 1.111964 0.0
          0.000000 1.000000 0.0
          0.006288 0.888036 0.0
          0.025072 0.777479 0.0
          0.056117 0.669721 0.0
          1.354476 0.146713 0.0
          1.312237 0.473684 0.0
          1.304888 0.585642 0.0
          1.204375 0.635173 0.0
          1.197078 0.747054 0.0
          1.096514 0.796675 0.0
          1.317529 0.240945 0.0
          1.319350 0.362750 0.0
          0.850417 1.893346 0.0
          0.737170 1.854640 0.0
          0.665170 1.442616 0.0
          0.765584 1.393148 0.0
          0.888076 1.007819 0.0
          0.772893 1.281245 0.0
          0.880767 1.119721 0.0
          0.648856 1.769975 0.0
          0.653224 1.665425 0.0
          0.873458 1.231624 0.0
          0.658166 1.554464 0.0
          0.422966 0.696519 0.0
          0.515052 0.758695 0.0
          0.198680 0.568549 0.0
          0.282618 0.566332 0.0
          0.608308 0.820976 0.0
          0.708873 0.771354 0.0
          0.701564 0.883257 0.0
          0.794820 0.945538 0.0
          0.344742 0.633789 0.0
          1.275717 1.033138 0.0
          1.368973 1.095419 0.0
          1.639777 1.497664 0.0
          1.669540 1.598926 0.0
          1.462229 1.157700 0.0
          1.555485 1.219981 0.0
          1.548176 1.331884 0.0
          1.182461 0.970857 0.0
          1.640762 1.382793 0.0
          0.995949 0.846295 0.0
          1.547032 1.568752 0.0
          1.598204 1.674359 0.0
          1.026713 1.811832 0.0
          1.135368 1.757550 0.0
          1.149219 1.883099 0.0
          0.743688 1.731383 0.0
          1.048666 1.918781 0.0
          0.836791 1.793005 0.0
          1.243420 1.807864 0.0
          1.331899 1.753476 0.0
          1.342654 1.851623 0.0
          1.508102 1.655558 0.0
          1.257729 1.894598 0.0
          0.955433 1.905262 0.0
          0.843792 1.678747 0.0
          0.935020 1.736726 0.0
          0.917487 1.824718 0.0
          1.074587 1.132381 0.0
          1.175152 1.082759 0.0
          1.167843 1.194662 0.0
          1.081896 1.020478 0.0
          1.268408 1.145040 0.0
          0.988641 0.958197 0.0
          0.974023 1.182002 0.0
          0.981332 1.070100 0.0
          0.750882 1.616858 0.0
          0.758348 1.504958 0.0
          0.851459 1.567250 0.0
          0.858828 1.455415 0.0
          0.952082 1.517694 0.0
          0.959405 1.405807 0.0
          1.059969 1.356186 0.0
          1.052660 1.468088 0.0
          0.944786 1.629612 0.0
          1.045351 1.579991 0.0
          0.966714 1.293905 0.0
          1.153225 1.418467 0.0
          0.866149 1.343526 0.0
          1.440302 1.493407 0.0
          1.429957 1.601377 0.0
          1.354355 1.319224 0.0
          1.447611 1.381505 0.0
          1.347046 1.431126 0.0
          1.239172 1.592650 0.0
          1.330368 1.650856 0.0
          1.232321 1.703866 0.0
          1.067278 1.244283 0.0
          1.454920 1.269603 0.0
          1.339737 1.543029 0.0
          1.361664 1.207322 0.0
          1.542104 1.444009 0.0
          1.261099 1.256943 0.0
          1.253790 1.368845 0.0
          1.160534 1.306564 0.0
          1.246481 1.480748 0.0
          1.145916 1.530369 0.0
          1.431520 1.801823 0.0
          1.138607 1.642272 0.0
          1.038042 1.691893 0.0
          1.425482 1.700778 0.0
          1.518613 1.742751 0.0
          1.865129 0.959256 0.0
          1.733417 1.421307 0.0
          1.743290 1.522186 0.0
          1.876351 0.842209 0.0
          1.757863 1.239234 0.0
          1.868800 1.244851 0.0
          1.824546 1.348542 0.0
          1.772098 0.896090 0.0
          1.778526 0.786134 0.0
          1.912543 1.052686 0.0
          1.608894 0.334151 0.0
          1.600319 0.443807 0.0
          1.510808 0.379288 0.0
          1.723764 1.330952 0.0
          1.693035 0.400439 0.0
          1.871041 0.736631 0.0
          1.684458 0.723265 0.0
          1.690553 0.612450 0.0
          1.780630 0.678171 0.0
          1.759020 1.008366 0.0
          1.412829 0.424012 0.0
          1.484164 0.821992 0.0
          1.390855 0.759770 0.0
          1.491223 0.710342 0.0
          1.584634 0.772448 0.0
          1.590987 0.661261 0.0
          1.398078 0.648014 0.0
          1.297635 0.697455 0.0
          1.405127 0.536524 0.0
          1.498327 0.598890 0.0
          1.283026 0.921236 0.0
          1.376282 0.983517 0.0
          1.189770 0.858955 0.0
          1.290333 0.809338 0.0
          1.383592 0.871615 0.0
          1.751035 1.120872 0.0
          1.662541 1.058379 0.0
          1.656050 1.170360 0.0
          1.469538 1.045798 0.0
          1.476847 0.933895 0.0
          1.570103 0.996176 0.0
          1.562794 1.108079 0.0
          1.577413 0.884276 0.0
          1.670668 0.946555 0.0
          1.793112 0.560190 0.0
          1.646973 1.278681 0.0
          1.677978 0.834655 0.0
          1.899230 1.147963 0.0
          1.521562 0.264927 0.0
          1.596426 0.552898 0.0
          1.503703 0.489996 0.0
          1.814507 1.176361 0.0
          1.420820 0.314206 0.0
          1.429116 0.204252 0.0
          1.689048 0.506068 0.0
          1.826251 1.069097 0.0
          1.863471 0.642339 0.0
          1.815150 1.452576 0.0
          1.763427 0.459348 0.0
          0.348087 1.599150 0.0
          0.262823 1.514589 0.0
          0.211194 1.132177 0.0
          0.102279 1.060904 0.0
          0.206213 1.017061 0.0
          0.107788 1.164631 0.0
          0.122885 0.747308 0.0
          0.234593 0.672031 0.0
          0.221334 0.796521 0.0
          0.146472 0.645403 0.0
          0.116935 0.957451 0.0
          0.284351 1.303525 0.0
          0.276551 1.409094 0.0
          0.172189 1.346588 0.0
          0.640771 1.861240 0.0
          0.559392 1.600219 0.0
          0.559089 1.705032 0.0
          0.449790 1.640153 0.0
          0.111425 0.849025 0.0
          0.212629 0.907829 0.0
          0.383290 1.694203 0.0
          0.465155 1.744582 0.0
          0.369764 1.475963 0.0
          0.198146 1.240907 0.0
          0.191855 1.446646 0.0
          0.780202 1.169343 0.0
          0.694255 0.995159 0.0
          0.787511 1.057440 0.0
          0.679637 1.218964 0.0
          0.586381 1.156683 0.0
          0.686946 1.107062 0.0
          0.463207 1.538921 0.0
          0.471224 1.429380 0.0
          0.564905 1.491677 0.0
          0.571763 1.380488 0.0
          0.313801 0.857983 0.0
          0.325419 0.746318 0.0
          0.306614 0.969840 0.0
          0.301380 1.081878 0.0
          0.393501 1.144029 0.0
          0.295566 1.193545 0.0
          0.407178 0.920219 0.0
          0.399869 1.032121 0.0
          0.385251 1.255926 0.0
          0.500434 0.982500 0.0
          0.672328 1.330867 0.0
          0.579072 1.268586 0.0
          0.507743 0.870597 0.0
          0.378326 1.367254 0.0
          0.493125 1.094402 0.0
          0.485816 1.206305 0.0
          0.478507 1.318207 0.0
          0.414487 0.808316 0.0
          0.600999 0.932878 0.0
          0.593690 1.044781 0.0
          0.108986 1.256697 0.0
          0.559546 1.805427 0.0
          0.438710 0.475802 0.0
          0.352294 0.523306 0.0
          0.343013 0.406820 0.0
          0.455294 0.372762 0.0
          0.939926 0.229230 0.0
          0.852755 0.184104 0.0
          0.945367 0.114512 0.0
          1.028262 0.192164 0.0
          0.745229 0.115672 0.0
          0.749370 0.222575 0.0
          0.844236 0.085916 0.0
          1.203269 0.203705 0.0
          1.261571 0.133219 0.0
          0.550485 0.318002 0.0
          0.468998 0.256431 0.0
          0.383398 0.309178 0.0
          0.257461 0.480071 0.0
          1.114003 0.169530 0.0
          1.161777 0.105856 0.0
          1.055494 0.094084 0.0
          0.650486 0.266057 0.0
          0.640036 0.374679 0.0
          1.223577 0.303699 0.0
          1.219040 0.411313 0.0
          0.630235 0.485267 0.0
          0.731219 0.436049 0.0
          0.540257 0.429008 0.0
          0.723491 0.547549 0.0
          0.522361 0.646792 0.0
          0.530216 0.535893 0.0
          0.622926 0.597171 0.0
          0.824056 0.497927 0.0
          0.431937 0.584858 0.0
          0.831757 0.387129 0.0
          0.924621 0.448306 0.0
          1.025187 0.398684 0.0
          0.931610 0.336883 0.0
          1.017877 0.510587 0.0
          1.118442 0.460966 0.0
          1.111127 0.572878 0.0
          0.917312 0.560209 0.0
          1.211682 0.523276 0.0
          1.010567 0.622491 0.0
          1.103821 0.684775 0.0
          1.125757 0.349058 0.0
          1.121213 0.251842 0.0
          1.003258 0.734393 0.0
          0.902694 0.784014 0.0
          0.910003 0.672112 0.0
          0.802129 0.833635 0.0
          0.809438 0.721733 0.0
          0.816747 0.609830 0.0
          0.559823 0.207093 0.0
          0.716182 0.659452 0.0
          0.615617 0.709073 0.0
          0.740232 0.325057 0.0
          0.841342 0.280271 0.0
          1.030573 0.289662 0.0
          0.656791 0.161091 0.0
        </DataArray>
      </Points>
      <Cells>
        <DataArray type="Int32" Name="connectivity" Format="ascii">
          80  73  81  
          72  73  80  
          82  83  84  
          51  57  85  
          84  86  82  
          85  87  51  
          83  88  84  
          89  90  88  
          81  91  80  
          90  92  88  
          82  86  93  
          94  87  85  
          95  87  94  
          93  96  82  
          97  98  99  
          77  98  100  
          100  98  97  
          1  77  100  
          98  101  99  
          77  70  98  
          102  2  79  
          59  56  103  
          103  56  104  
          105  106  107  
          107  106  108  
          52  106  60  
          108  109  107  
          110  111  112  
          113  109  114  
          60  106  105  
          115  111  110  
          110  109  108  
          112  109  110  
          107  109  113  
          111  116  112  
          117  55  59  
          118  80  119  
          120  121  122  
          123  124  125  
          126  111  115  
          76  121  127  
          118  119  128  
          119  124  128  
          114  109  112  
          95  94  113  
          129  74  127  
          78  130  76  
          76  130  121  
          131  132  133  
          132  116  133  
          122  128  134  
          135  116  134  
          128  124  123  
          124  89  125  
          21  136  20  
          131  129  120  
          122  134  132  
          94  105  107  
          3  93  25  
          122  121  118  
          114  112  135  
          125  83  137  
          137  83  138  
          85  57  58  
          133  111  126  
          117  108  53  
          134  116  132  
          138  82  95  
          75  76  127  
          112  116  135  
          137  138  114  
          138  95  113  
          85  58  105  
          127  121  120  
          123  125  137  
          24  84  23  
          133  116  111  
          117  53  55  
          115  117  59  
          129  71  74  
          115  59  103  
          115  110  117  
          131  120  132  
          129  127  120  
          94  85  105  
          123  135  134  
          19  81  0  
          97  99  126  
          138  83  82  
          120  122  132  
          74  75  127  
          118  130  80  
          110  108  117  
          121  130  118  
          58  60  105  
          126  115  103  
          128  123  134  
          137  114  135  
          123  137  135  
          99  133  126  
          122  118  128  
          94  107  113  
          99  131  133  
          138  113  114  
          53  106  52  
          97  126  103  
          108  106  53  
          97  103  104  
          54  2  102  
          104  56  54  
          104  54  102  
          100  97  104  
          100  104  102  
          1  100  102  
          99  101  131  
          129  101  71  
          1  102  79  
          131  101  129  
          101  70  71  
          98  70  101  
          125  88  83  
          78  72  130  
          89  88  125  
          130  72  80  
          139  91  140  
          136  139  140  
          89  139  136  
          87  50  51  
          124  139  89  
          82  96  95  
          20  140  19  
          81  73  0  
          93  86  25  
          3  50  93  
          136  140  20  
          24  86  84  
          19  140  81  
          25  86  24  
          136  90  89  
          21  90  136  
          84  92  23  
          80  91  119  
          88  92  84  
          119  139  124  
          22  90  21  
          87  96  50  
          23  92  22  
          95  96  87  
          50  96  93  
          119  91  139  
          140  91  81  
          22  92  90  
          78  142  72  
          72  142  143  
          51  214  57  
          171  70  77  
          172  70  171  
          173  171  77  
          79  304  303  
          2  306  304  
          2  304  79  
          55  225  59  
          59  225  56  
          228  225  55  
          54  68  2  
          234  52  233  
          233  52  60  
          178  186  75  
          179  71  172  
          74  179  182  
          53  245  55  
          75  186  76  
          186  78  76  
          27  51  26  
          182  178  75  
          58  215  60  
          215  233  60  
          74  182  75  
          245  52  234  
          74  71  179  
          245  228  55  
          56  225  227  
          227  68  54  
          53  52  245  
          56  227  54  
          68  306  2  
          79  303  47  
          1  79  47  
          173  77  1  
          71  70  172  
          173  1  47  
          143  73  72  
          186  154  78  
          78  154  142  
          51  50  26  
          0  73  9  
          9  73  143  
          26  50  3  
          57  216  58  
          58  216  215  
          27  214  51  
          57  214  256  
          256  216  57  
                  </DataArray>
        <DataArray type="Int32" Name="offsets" Format="ascii">
          3  6  9  12  15  18  21  24  27  30  33  36  39  42  45  48  51  54  57  60  63  66  69  72  75  78  81  84  87  90  93  96  99  102  105  108  111  114  117  120  123  126  129  132  135  138  141  144  147  150  153  156  159  162  165  168  171  174  177  180  183  186  189  192  195  198  201  204  207  210  213  216  219  222  225  228  231  234  237  240  243  246  249  252  255  258  261  264  267  270  273  276  279  282  285  288  291  294  297  300  303  306  309  312  315  318  321  324  327  330  333  336  339  342  345  348  351  354  357  360  363  366  369  372  375  378  381  384  387  390  393  396  399  402  405  408  411  414  417  420  423  426  429  432  435  438  441  444  447  450  453  456  459  462  465  468  471  474  477  480  483  486  489  492  495  498  501  504  507  510  513  516  519  522  525  528  531  534  537  540  543  546  549  552  555  558  561  564  567  570  573  576  579  582  585  588  591  594  597  600  603  606  609  
        </DataArray>
        <DataArray type="Int32" Name="types" Format="ascii">
          5  5  5  5  5  5  5  5  5  5  5  5  5  5  5  5  5  5  5  5  5  5  5  5  5  5  5  5  5  5  5  5  5  5  5  5  5  5  5  5  5  5  5  5  5  5  5  5  5  5  5  5  5  5  5  5  5  5  5  5  5  5  5  5  5  5  5  5  5  5  5  5  5  5  5  5  5  5  5  5  5  5  5  5  5  5  5  5  5  5  5  5  5  5  5  5  5  5  5  5  5  5  5  5  5  5  5  5  5  5  5  5  5  5  5  5  5  5  5  5  5  5  5  5  5  5  5  5  5  5  5  5  5  5  5  5  5  5  5  5  5  5  5  5  5  5  5  5  5  5  5  5  5  5  5  5  5  5  5  5  5  5  5  5  5  5  5  5  5  5  5  5  5  5  5  5  5  5  5  5  5  5  5  5  5  5  5  5  5  5  5  5  5  5  5  5  5  5  5  5  5  5  5  
        </DataArray>
      </Cells>
      <CellData Scalars="scalars">
        <DataArray type="Float32" Name="rank" Format="ascii">
          0
          0
          0
          0
          0
          0
          0
          0
          0
          0
          0
          0
          0
          0
          0
          0
          0
          0
          0
          0
          0
          0
          0
          0
          0
          0
          0
          0
          0
          0
          0
          0
          0
          0
          0
          0
          0
          0
          0
          0
          0
          0
          0
          0
          0
          0
          0
          0
          0
          0
          0
          0
          0
          0
          0
          0
          0
          0
          0
          0
          0
          0
          0
          0
          0
          0
          0
          0
          0
          0
          0
          0
          0
          0
          0
          0
          0
          0
          0
          0
          0
          0
          0
          0
          0
          0
          0
          0
          0
          0
          0
          0
          0
          0
          0
          0
          0
          0
          0
          0
          0
          0
          0
          0
          0
          0
          0
          0
          0
          0
          0
          0
          0
          0
          0
          0
          0
          0
          0
          0
          0
          0
          0
          0
          0
          0
          0
          0
          0
          0
          0
          0
          0
          0
          0
          0
          0
          0
          0
          0
          0
          0
          0
          0
          0
          0
          0
          0
          0
          0
          0
          0
          0
          0
          0
          0
          0
          0
          0
          0
          0
          0
          0
          0
          0
          0
          0
          0
          0
          0
          0
          0
          0
          0
          0
          0
          0
          0
          0
          0
          0
          0
          0
          0
          0
          0
          0
          0
          0
          0
          0
          0
          0
          0
          0
          0
          0
          0
          0
          0
          0
          0
          0
        </DataArray>
        <DataArray type="Float32" Name="T" Format="ascii">
          0.074116
          0.085922
          0.088269
          0.082674
          0.068360
          0.087799
          0.083969
          0.073524
          0.082738
          0.058430
          0.066612
          0.111781
          0.115899
          0.079025
          0.232488
          0.235749
          0.236662
          0.237148
          0.227419
          0.230692
          0.237712
          0.231875
          0.236552
          0.160346
          0.176518
          0.164293
          0.179810
          0.203885
          0.167431
          0.154192
          0.213733
          0.193046
          0.193516
          0.166970
          0.201550
          0.216965
          0.122562
          0.177191
          0.131012
          0.221226
          0.165437
          0.138424
          0.131171
          0.180740
          0.135357
          0.191049
          0.133522
          0.149568
          0.208698
          0.203962
          0.167561
          0.183630
          0.141610
          0.110349
          0.027586
          0.202698
          0.183241
          0.147429
          0.028551
          0.161485
          0.178368
          0.124721
          0.130056
          0.100616
          0.218920
          0.199657
          0.191238
          0.116233
          0.164551
          0.188812
          0.149240
          0.135835
          0.121825
          0.179156
          0.138712
          0.030387
          0.209092
          0.206692
          0.220252
          0.200942
          0.227711
          0.213257
          0.200761
          0.191932
          0.127941
          0.167942
          0.030022
          0.230593
          0.112779
          0.188027
          0.177412
          0.126889
          0.202941
          0.147588
          0.135205
          0.228211
          0.159871
          0.162647
          0.157398
          0.223617
          0.156642
          0.150770
          0.218524
          0.151662
          0.180379
          0.232885
          0.186478
          0.237063
          0.238541
          0.237978
          0.239877
          0.238954
          0.240368
          0.239463
          0.220436
          0.211650
          0.238128
          0.212545
          0.218656
          0.226512
          0.103185
          0.114852
          0.096431
          0.110075
          0.078039
          0.067170
          0.078107
          0.071041
          0.100961
          0.100124
          0.028892
          0.044949
          0.039850
          0.042603
          0.041839
          0.041709
          0.043632
          0.025466
          0.064591
          0.039353
          0.039631
          0.103166
          0.062052
          0.111158
          0.025516
          0.079280
          0.022576
          0.100156
          0.066520
          0.099175
          0.067348
          0.035402
          0.097580
          0.076841
          0.061249
          0.227119
          0.219356
          0.228610
          0.230416
          0.230769
          0.233852
          0.221255
          0.228681
          0.215430
          0.235385
          0.162803
          0.155474
          0.144605
          0.204467
          0.183838
          0.200722
          0.148244
          0.133023
          0.030989
          0.157339
          0.126693
          0.136784
          0.173808
          0.178850
          0.197345
          0.205165
          0.230244
          0.233591
          0.187580
          0.234835
          0.231489
          0.230764
          0.234559
          0.233561
          0.215072
          0.232264
          0.069950
          0.115909
          0.099029
          0.044800
          0.030598
          0.043551
          0.028880
          0.093567
          0.106088
          0.039201
          0.057546
          0.071789
        </DataArray>
        <DataArray type="Float32" Name="2T" Format="ascii">
          0.000000
          0.000000
          0.000000
          0.000000
          0.000000
          0.000000
          0.000000
          0.000000
          0.000000
          0.000000
          0.000000
          0.000000
          0.000000
          0.000000
          0.000000
          0.000000
          0.000000
          0.000000
          0.000000
          0.000000
          0.000000
          0.000000
          0.000000
          0.000000
          0.000000
          0.000000
          0.000000
          0.000000
          0.000000
          0.000000
          0.000000
          0.000000
          0.000000
          0.000000
          0.000000
          0.000000
          0.000000
          0.000000
          0.000000
          0.000000
          0.000000
          0.000000
          0.000000
          0.000000
          0.000000
          0.000000
          0.000000
          0.000000
          0.000000
          0.000000
          0.000000
          0.000000
          0.000000
          0.000000
          0.000000
          0.000000
          0.000000
          0.000000
          0.000000
          0.000000
          0.000000
          0.000000
          0.000000
          0.000000
          0.000000
          0.000000
          0.000000
          0.000000
          0.000000
          0.000000
          0.000000
          0.000000
          0.000000
          0.000000
          0.000000
          0.000000
          0.000000
          0.000000
          0.000000
          0.000000
          0.000000
          0.000000
          0.000000
          0.000000
          0.000000
          0.000000
          0.000000
          0.000000
          0.000000
          0.000000
          0.000000
          0.000000
          0.000000
          0.000000
          0.000000
          0.000000
          0.000000
          0.000000
          0.000000
          0.000000
          0.000000
          0.000000
          0.000000
          0.000000
          0.000000
          0.000000
          0.000000
          0.000000
          0.000000
          0.000000
          0.000000
          0.000000
          0.000000
          0.000000
          0.000000
          0.000000
          0.000000
          0.000000
          0.000000
          0.000000
          0.000000
          0.000000
          0.000000
          0.000000
          0.000000
          0.000000
          0.000000
          0.000000
          0.000000
          0.000000
          0.000000
          0.000000
          0.000000
          0.000000
          0.000000
          0.000000
          0.000000
          0.000000
          0.000000
          0.000000
          0.000000
          0.000000
          0.000000
          0.000000
          0.000000
          0.000000
          0.000000
          0.000000
          0.000000
          0.000000
          0.000000
          0.000000
          0.000000
          0.000000
          0.000000
          0.000000
          0.000000
          0.000000
          0.000000
          0.000000
          0.000000
          0.000000
          0.000000
          0.000000
          0.000000
          0.000000
          0.000000
          0.000000
          0.000000
          0.000000
          0.000000
          0.000000
          0.000000
          0.000000
          0.000000
          0.000000
          0.000000
          0.000000
          0.000000
          0.000000
          0.000000
          0.000000
          0.000000
          0.000000
          0.000000
          0.000000
          0.000000
          0.000000
          0.000000
          0.000000
          0.000000
          0.000000
          0.000000
          0.000000
          0.000000
          0.000000
          0.000000
          0.000000
          0.000000
          0.000000
          0.000000
          0.000000
          0.000000
        </DataArray>
      </CellData>
    </Piece>
  </UnstructuredGrid>
</VTKFile>