<VTKFile type="UnstructuredGrid" version="0.1" byte_order="BigEndian">
  <UnstructuredGrid>
    <Piece NumberOfPoints="2370" NumberOfCells="666">
      <Points>
        <DataArray type="Float32" NumberOfComponents="3" Format="ascii">
          -0.300000 0.000000 0.0
          0.000000 0.000000 0.0
          0.008163 0.000000 0.0
          0.001696 0.001633 0.0
          0.003800 0.000760 0.0
          0.000000 0.000512 0.0
          -0.300000 0.000625 0.0
          -0.214259 0.000000 0.0
          -0.153015 0.000000 0.0
          -0.109270 0.000000 0.0
          -0.078023 0.000000 0.0
          -0.055704 0.000000 0.0
          -0.039762 0.000000 0.0
          -0.028375 0.000000 0.0
          -0.020241 0.000000 0.0
          -0.014431 0.000000 0.0
          -0.010281 0.000000 0.0
          -0.007317 0.000000 0.0
          -0.005200 0.000000 0.0
          -0.003687 0.000000 0.0
          -0.002607 0.000000 0.0
          -0.001836 0.000000 0.0
          -0.001284 0.000000 0.0
          -0.000891 0.000000 0.0
          -0.000610 0.000000 0.0
          -0.000409 0.000000 0.0
          -0.000265 0.000000 0.0
          -0.000163 0.000000 0.0
          -0.000090 0.000000 0.0
          -0.000037 0.000000 0.0
          0.000000 0.000011 0.0
          0.000000 0.000023 0.0
          0.000000 0.000038 0.0
          0.000000 0.000057 0.0
          0.000000 0.000079 0.0
          0.000000 0.000105 0.0
          0.000000 0.000136 0.0
          0.000000 0.000174 0.0
          0.000000 0.000219 0.0
          0.000000 0.000274 0.0
          0.000000 0.000339 0.0
          0.000000 0.000418 0.0
          0.000000 0.000625 0.0
          0.000000 0.000760 0.0
          0.000000 0.000923 0.0
          0.000000 0.001118 0.0
          0.000000 0.001352 0.0
          0.000000 0.001633 0.0
          0.000000 0.001970 0.0
          0.000000 0.002374 0.0
          0.000000 0.002859 0.0
          0.000000 0.003442 0.0
          0.000000 0.004141 0.0
          0.000000 0.004980 0.0
          0.000000 0.005986 0.0
          0.000000 0.007194 0.0
          0.000000 0.008643 0.0
          0.000000 0.010382 0.0
          0.000000 0.012469 0.0
          0.000000 0.014974 0.0
          0.000000 0.017979 0.0
          0.000000 0.021585 0.0
          0.000000 0.025913 0.0
          -0.300000 0.002859 0.0
          -0.300000 0.002374 0.0
          -0.300000 0.001970 0.0
          -0.300000 0.001633 0.0
          -0.300000 0.001352 0.0
          -0.300000 0.001118 0.0
          -0.300000 0.000923 0.0
          -0.300000 0.000760 0.0
          -0.300000 0.000512 0.0
          -0.300000 0.000418 0.0
          -0.300000 0.000339 0.0
          -0.300000 0.000274 0.0
          -0.300000 0.000219 0.0
          -0.300000 0.000174 0.0
          -0.300000 0.000136 0.0
          -0.300000 0.000105 0.0
          -0.300000 0.000079 0.0
          -0.300000 0.000057 0.0
          -0.300000 0.000038 0.0
          -0.300000 0.000023 0.0
          -0.300000 0.000011 0.0
          0.000053 0.000000 0.0
          0.000116 0.000000 0.0
          0.000192 0.000000 0.0
          0.000283 0.000000 0.0
          0.000393 0.000000 0.0
          0.000524 0.000000 0.0
          0.000681 0.000000 0.0
          0.000870 0.000000 0.0
          0.001097 0.000000 0.0
          0.001369 0.000000 0.0
          0.001696 0.000000 0.0
          0.002088 0.000000 0.0
          0.002558 0.000000 0.0
          0.003123 0.000000 0.0
          0.003800 0.000000 0.0
          0.004613 0.000000 0.0
          0.005588 0.000000 0.0
          0.006758 0.000000 0.0
          0.009848 0.000000 0.0
          0.011870 0.000000 0.0
          0.014297 0.000000 0.0
          0.017209 0.000000 0.0
          0.020704 0.000000 0.0
          0.024898 0.000000 0.0
          0.029930 0.000000 0.0
          0.035969 0.000000 0.0
          0.043215 0.000000 0.0
          0.051911 0.000000 0.0
          0.062346 0.000000 0.0
          0.074868 0.000000 0.0
          0.089894 0.000000 0.0
          0.107926 0.000000 0.0
          0.129564 0.000000 0.0
          0.155530 0.000000 0.0
          0.186688 0.000000 0.0
          0.224079 0.000000 0.0
          0.268947 0.000000 0.0
          0.322789 0.000000 0.0
          0.387400 0.000000 0.0
          0.464933 0.000000 0.0
          0.557972 0.000000 0.0
          0.669620 0.000000 0.0
          0.803597 0.000000 0.0
          0.964369 0.000000 0.0
          1.157296 0.000000 0.0
          1.388808 0.000000 0.0
          1.666622 0.000000 0.0
          0.001369 0.001633 0.0
          0.001369 0.001352 0.0
          0.000681 0.001352 0.0
          0.000524 0.001352 0.0
          0.000393 0.001118 0.0
          0.000393 0.000923 0.0
          0.000393 0.000760 0.0
          0.000283 0.000760 0.0
          0.000192 0.000625 0.0
          0.000192 0.000512 0.0
          0.000116 0.000512 0.0
          0.001097 0.001352 0.0
          0.000870 0.001352 0.0
          0.000283 0.000625 0.0
          0.000393 0.001352 0.0
          0.000053 0.000512 0.0
          -0.000037 0.000512 0.0
          -0.000090 0.000512 0.0
          -0.000163 0.000512 0.0
          -0.000265 0.000512 0.0
          -0.000409 0.000512 0.0
          -0.000610 0.000512 0.0
          -0.000891 0.000512 0.0
          -0.002607 0.000512 0.0
          -0.003687 0.000512 0.0
          -0.005200 0.000512 0.0
          -0.007317 0.000512 0.0
          -0.010281 0.000512 0.0
          -0.014431 0.000512 0.0
          -0.020241 0.000512 0.0
          -0.028375 0.000512 0.0
          -0.039762 0.000512 0.0
          -0.055704 0.000512 0.0
          -0.078023 0.000512 0.0
          -0.109270 0.000512 0.0
          -0.214259 0.000625 0.0
          -0.001284 0.000512 0.0
          -0.001836 0.000512 0.0
          -0.153015 0.000625 0.0
          -0.109270 0.000625 0.0
          0.006758 0.000760 0.0
          0.008163 0.000760 0.0
          0.004613 0.000760 0.0
          0.005588 0.000760 0.0
          0.020704 0.000760 0.0
          0.024898 0.000760 0.0
          0.464933 0.002859 0.0
          0.557972 0.002859 0.0
          0.017209 0.000760 0.0
          0.129564 0.001970 0.0
          0.155530 0.001970 0.0
          0.129564 0.001118 0.0
          0.129564 0.001352 0.0
          0.089894 0.001118 0.0
          0.107926 0.001118 0.0
          0.186688 0.001970 0.0
          0.224079 0.001970 0.0
          0.035969 0.001118 0.0
          0.043215 0.001118 0.0
          0.803597 0.003442 0.0
          0.964369 0.003442 0.0
          0.051911 0.001118 0.0
          0.062346 0.001118 0.0
          0.268947 0.002859 0.0
          0.322789 0.002859 0.0
          0.074868 0.001118 0.0
          0.669620 0.002859 0.0
          0.669620 0.003442 0.0
          0.009848 0.000760 0.0
          0.011870 0.000760 0.0
          0.014297 0.000760 0.0
          0.035969 0.000760 0.0
          0.035969 0.000923 0.0
          0.029930 0.000760 0.0
          0.129564 0.001633 0.0
          0.224079 0.002374 0.0
          0.268947 0.002374 0.0
          0.387400 0.002859 0.0
          1.157296 0.003442 0.0
          1.388808 0.003442 0.0
          1.388808 0.004141 0.0
          1.666622 0.004141 0.0
          0.003123 0.001118 0.0
          0.003123 0.000923 0.0
          0.002558 0.001352 0.0
          0.002558 0.001118 0.0
          0.002088 0.001633 0.0
          0.002088 0.001352 0.0
          0.003800 0.000923 0.0
          0.001369 0.025913 0.0
          0.001369 0.021585 0.0
          0.001696 0.014974 0.0
          0.001696 0.012469 0.0
          0.001696 0.010382 0.0
          0.001696 0.008643 0.0
          0.001696 0.007194 0.0
          0.001696 0.005986 0.0
          0.001696 0.004980 0.0
          0.001696 0.002859 0.0
          0.001696 0.002374 0.0
          0.001696 0.001970 0.0
          0.001696 0.017979 0.0
          0.001696 0.004141 0.0
          0.001696 0.003442 0.0
          0.001696 0.021585 0.0
          0.006758 0.000274 0.0
          0.006758 0.000219 0.0
          0.003800 0.000625 0.0
          0.008163 0.000011 0.0
          0.003800 0.000512 0.0
          0.003800 0.000418 0.0
          0.006758 0.000105 0.0
          0.006758 0.000079 0.0
          0.008163 0.000038 0.0
          0.008163 0.000023 0.0
          0.005588 0.000274 0.0
          0.003800 0.000339 0.0
          0.003800 0.000274 0.0
          0.004613 0.000274 0.0
          0.006758 0.000174 0.0
          0.006758 0.000136 0.0
          0.006758 0.000057 0.0
          0.008163 0.000057 0.0
          -0.214259 0.000011 0.0
          -0.214259 0.000023 0.0
          -0.214259 0.000038 0.0
          -0.214259 0.000057 0.0
          -0.214259 0.000079 0.0
          -0.214259 0.000105 0.0
          -0.214259 0.000136 0.0
          -0.214259 0.000174 0.0
          -0.214259 0.000219 0.0
          -0.214259 0.000274 0.0
          -0.214259 0.000339 0.0
          -0.214259 0.000418 0.0
          -0.214259 0.000512 0.0
          -0.153015 0.000011 0.0
          -0.153015 0.000023 0.0
          -0.153015 0.000038 0.0
          -0.153015 0.000057 0.0
          -0.153015 0.000079 0.0
          -0.153015 0.000105 0.0
          -0.153015 0.000136 0.0
          -0.153015 0.000174 0.0
          -0.153015 0.000219 0.0
          -0.153015 0.000274 0.0
          -0.153015 0.000339 0.0
          -0.153015 0.000418 0.0
          -0.153015 0.000512 0.0
          -0.109270 0.000011 0.0
          -0.109270 0.000023 0.0
          -0.109270 0.000038 0.0
          -0.109270 0.000057 0.0
          -0.109270 0.000079 0.0
          -0.109270 0.000105 0.0
          -0.109270 0.000136 0.0
          -0.109270 0.000174 0.0
          -0.109270 0.000219 0.0
          -0.109270 0.000274 0.0
          -0.109270 0.000339 0.0
          -0.109270 0.000418 0.0
          -0.078023 0.000011 0.0
          -0.078023 0.000023 0.0
          -0.078023 0.000038 0.0
          -0.078023 0.000057 0.0
          -0.078023 0.000079 0.0
          -0.078023 0.000105 0.0
          -0.078023 0.000136 0.0
          -0.078023 0.000174 0.0
          -0.078023 0.000219 0.0
[...]
      <CellData Scalars="scalars">
        <DataArray type="Float32" Name="rank" Format="ascii">
          4
          4
          4
          4
          4
          4
          4
          4
          4
          4
          4
          4
          4
          4
          4
          4
          4
          4
          4
          4
          4
          4
          4
          4
          4
          4
          4
          4
          4
          4
          4
          4
          4
          4
          4
          4
          4
          4
          4
          4
          4
          4
          4
          4
          4
          4
          4
          4
          4
          4
          4
          4
          4
          4
          4
          4
          4
          4
          4
          4
          4
          4
          4
          4
          4
          4
          4
          4
          4
          4
          4
          4
          4
          4
          4
          4
          4
          4
          4
          4
          4
          4
          4
          4
          4
          4
          4
          4
          4
          4
          4
          4
          4
          4
          4
          4
          4
          4
          4
          4
          4
          4
          4
          4
          4
          4
          4
          4
          4
          4
          4
          4
          4
          4
          4
          4
          4
          4
          4
          4
          4
          4
          4
          4
          4
          4
          4
          4
          4
          4
          4
          4
          4
          4
          4
          4
          4
          4
          4
          4
          4
          4
          4
          4
          4
          4
          4
          4
          4
          4
          4
          4
          4
          4
          4
          4
          4
          4
          4
          4
          4
          4
          4
          4
          4
          4
          4
          4
          4
          4
          4
          4
          4
          4
          4
          4
          4
          4
          4
          4
          4
          4
          4
          4
          4
          4
          4
          4
          4
          4
          4
          4
          4
          4
          4
          4
          4
          4
          4
          4
          4
          4
          4
          4
          4
          4
          4
          4
          4
          4
          4
          4
          4
          4
          4
          4
          4
          4
          4
          4
          4
          4
          4
          4
          4
          4
          4
          4
          4
          4
          4
          4
          4
          4
          4
          4
          4
          4
          4
          4
          4
          4
          4
          4
          4
          4
          4
          4
          4
          4
          4
          4
          4
          4
          4
          4
          4
          4
          4
          4
          4
          4
          4
          4
          4
          4
          4
          4
          4
          4
          4
          4
          4
          4
          4
          4
          4
          4
          4
          4
          4
          4
          4
          4
          4
          4
          4
          4
          4
          4
          4
          4
          4
          4
          4
          4
          4
          4
          4
          4
          4
          4
          4
          4
          4
          4
          4
          4
          4
          4
          4
          4
          4
          4
          4
          4
          4
          4
          4
          4
          4
          4
          4
          4
          4
          4
          4
          4
          4
          4
          4
          4
          4
          4
          4
          4
          4
          4
          4
          4
          4
          4
          4
          4
          4
          4
          4
          4
          4
          4
          4
          4
          4
          4
          4
          4
          4
          4
          4
          4
          4
          4
          4
          4
          4
          4
          4
          4
          4
          4
          4
          4
          4
          4
          4
          4
          4
          4
          4
          4
          4
          4
          4
          4
          4
          4
          4
          4
          4
          4
          4
          4
          4
          4
          4
          4
          4
          4
          4
          4
          4
          4
          4
          4
          4
          4
          4
          4
          4
          4
          4
          4
          4
          4
          4
          4
          4
          4
          4
          4
          4
          4
          4
          4
          4
          4
          4
          4
          4
          4
          4
          4
          4
          4
          4
          4
          4
          4
          4
          4
          4
          4
          4
          4
          4
          4
          4
          4
          4
          4
          4
          4
          4
          4
          4
          4
          4
          4
          4
          4
          4
          4
          4
          4
          4
          4
          4
          4
          4
          4
          4
          4
          4
          4
          4
          4
          4
          4
          4
          4
          4
          4
          4
          4
          4
          4
          4
          4
          4
          4
          4
          4
          4
          4
          4
          4
          4
          4
          4
          4
          4
          4
          4
          4
          4
          4
          4
          4
          4
          4
          4
          4
          4
          4
          4
          4
          4
          4
          4
          4
          4
          4
          4
          4
          4
          4
          4
          4
          4
          4
          4
          4
          4
          4
          4
          4
          4
          4
          4
          4
          4
          4
          4
          4
          4
          4
          4
          4
          4
          4
          4
          4
          4
          4
          4
          4
          4
          4
          4
          4
          4
          4
          4
          4
          4
          4
          4
          4
          4
          4
          4
          4
          4
          4
          4
          4
          4
          4
          4
          4
          4
          4
          4
          4
          4
          4
          4
          4
          4
          4
          4
          4
          4
          4
          4
          4
          4
          4
          4
          4
          4
          4
          4
          4
          4
          4
          4
          4
          4
          4
          4
          4
          4
          4
          4
          4
          4
          4
          4
          4
          4
          4
          4
          4
          4
          4
          4
          4
          4
          4
          4
          4
          4
          4
          4
          4
          4
          4
          4
          4
          4
          4
          4
          4
          4
          4
          4
          4
          4
          4
          4
          4
          4
          4
          4
          4
          4
          4
          4
          4
          4
          4
          4
          4
          4
          4
        </DataArray>
        <DataArray type="Float32" Name="Wall Distance" Format="ascii">
          0.2571558593477577
          0.2571558598485309
          0.2571558611407653
          0.2571558636870043
          0.2571558681760530
          0.2571558756270871
          0.2571558875409071
          0.2571559061181761
          0.2571559345747516
          0.2571559775984569
          0.2571560420083366
          0.2571561377061112
          0.2571562790476699
          0.2571564868227930
          0.1836635552788340
          0.1836635559809119
          0.1836635577913385
          0.1836635613577837
          0.1836635676447164
          0.1836635780791986
          0.1836635947626456
          0.1836636207763637
          0.1836636606231368
          0.1836637208667475
          0.1836638110550264
          0.1836639450519239
          0.1836641429579263
          0.1836644338820286
          0.1311690703439981
          0.1311690713266802
          0.1311690738612057
          0.1311690788544349
          0.1311690876568010
          0.1311691022664741
          0.1311691256258512
          0.1311691620493380
          0.1311692178417323
          0.1311693021936505
          0.1311694284739667
          0.1311696160948580
          0.1311698932008577
          0.1311703005501646
          0.0936730226144855
          0.0936730239895161
          0.0936730275373732
          0.0936730345278857
          0.0936730468519947
          0.0936730673076651
          0.0936731000150340
          0.0936731510153923
          0.0936732291371632
          0.0936733472497097
          0.0936735240730729
          0.0936737867893897
          0.0936741748083033
          0.0668901400876825
          0.0668901420120297
          0.0668901469789582
          0.0668901567666924
          0.0668901740232434
          0.0668902026668215
          0.0668902484671851
          0.0668903198844136
          0.0668904292816740
          0.0668905946809778
          0.0668908422974297
          0.0668912101959376
          0.0668917535639635
          0.0477595160430569
          0.0477595187369559
          0.0477595256919258
          0.0477595393984318
          0.0477595635651080
          0.0477596036795767
          0.0477596678226322
          0.0477597678429340
          0.0477599210555751
          0.0477601527009685
          0.0477604994939299
          0.0477610147444212
          0.0477617757412094
          0.0340947894070009
          0.0340947931794040
          0.0340948029204239
          0.0340948221186238
          0.0340948559689358
          0.0340949121582581
          0.0340950020059001
          0.0340951421089729
          0.0340953567216325
          0.0340956811990718
          0.0340961669682521
          0.0340968886992139
          0.0340979546446031
          0.0243342735017032
          0.0243342787861937
          0.0243342924331162
          0.0243343193302548
          0.0243343667561499
          0.0243344454807860
          0.0243345713633650
          0.0243347676574355
          0.0243350683440872
          0.0243355229563340
          0.0243362035414972
          0.0243372147042903
          0.0243387080839473
          0.0173624784370125
          0.0173624858425856
          0.0173625049682931
          0.0173625426645176
          0.0173626091323116
          0.0173627194659812
          0.0173628958921785
          0.0173631710000654
          0.0173635924117936
          0.0173642295413901
          0.0173651833470263
          0.0173666003942186
          0.0173686931195015
          0.0123826268806649
          0.0123826372637755
          0.0123826640802767
          0.0123827169354224
          0.0123828101324639
          0.0123829648353491
          0.0123832122076234
          0.0123835979401224
          0.0123841887964819
          0.0123850820828187
          0.0123864193059939
          0.0123884058579236
          0.0123913393549211
          0.0088255918191310
          0.0088256063864264
          0.0088256440101900
          0.0088257181666893
          0.0088258489231468
          0.0088260659713347
          0.0088264130297348
          0.0088269541918887
          0.0088277831008218
          0.0088290362149867
          0.0088309119270841
          0.0088336980865582
          0.0088378115575072
          0.0062848532659470
          0.0062848737217948
          0.0062849265547383
          0.0062850306883468
          0.0062852143002450
          0.0062855190799591
          0.0062860064056610
          0.0062867662474319
          0.0062879300250471
          0.0062896891805297
          0.0062923219037248
          0.0062962315181363
          0.0063020014705874
          0.0044700410613914
          0.0044700698217908
          0.0044701441036436
          0.0044702905115592
          0.0044705486574657
          0.0044709771411647
          0.0044716622207787
          0.0044727302987649
          0.0044743659287998
          0.0044768377723805
          0.0044805358361058
          0.0044860247159411
          0.0044941193729121
          0.0031737478729002
          0.0031737883798541
          0.0031738929997095
          0.0031740991984294
          0.0031744627513141
          0.0031750661495470
          0.0031760307728104
          0.0031775343859157
          0.0031798363019544
          0.0031833135057781
          0.0031885121619979
          0.0031962206075494
          0.0032075718773198
          0.0022478254119351
          0.0022478826038992
          0.0022480303141303
          0.0022483214271404
          0.0022488346484588
          0.0022496863267418
          0.0022510475300177
          0.0022531684987201
          0.0022564136176980
          0.0022613112080333
          0.0022686236591970
          0.0022794450350418
          0.0022953345810548
          0.0015864537642229
          0.0015865347975578
          0.0015867440737478
          0.0015871564829398
          0.0015878834141222
          0.0015890893708276
          0.0015910158519137
          0.0015940152888014
          0.0015985990334998
          0.0016055045417838
          0.0016157876591598
          0.0016309463873162
          0.0016530811496640
          0.0011140472238158
          0.0011141626158064
          0.0011144605986070
          0.0011150476990863
          0.0011160821682568
          0.0011177972523840
          0.0011205342964230
          0.0011247890507554
          0.0011312756237702
          0.0011410129271676
          0.0011554373306595
          0.0011765422997715
          0.0012070389187794
          0.0007766167731291
          0.0007767822923599
          0.0007772096377006
          0.0007780512618875
          0.0007795330659773
          0.0007819866314906
          0.0007858940791118
          0.0007919487372899
          0.0008011347766597
          0.0008148269098780
          0.0008349058736944
          0.0008638774078319
          0.0009049725652466
          0.0005355995898327
          0.0005358395636417
          0.0005364588792041
          0.0005376774815428
          0.0005398195150767
          0.0005433566044509
          0.0005489652185880
          0.0005575985204143
          0.0005705700988268
          0.0005896407382657
          0.0006170908563852
          0.0006557571828382
          0.0007090194997013
          0.0003634510929324
          0.0003638046374754
          0.0003647161983187
          0.0003665062760013
          0.0003696415628564
          0.0003747881744109
          0.0003828741141042
          0.0003951529905530
          0.0004132553854444
          0.0004392106284362
          0.0004754270722262
          0.0005246401232483
          0.0005898630580070
          0.0002404986940738
          0.0002410326515790
          0.0002424063327835
          0.0002450913608936
          0.0002497555000462
          0.0002573112909904
          0.0002689526204277
          0.0002861622104941
          0.0003106814097570
          0.0003444544976222
          0.0003895816036476
          0.0004483192879556
          0.0005231456321361
          0.0001526949502544
          0.0001535345729794
          0.0001556822280684
          0.0001598308516480
          0.0001668949841890
          0.0001780034449389
          0.0001944521482991
          0.0002176348700514
          0.0002489961130819
          0.0002900431466763
          0.0003424178032635
          0.0004080028310781
          0.0004890372979698
          0.0000900176597252
          0.0000914346560457
          0.0000949967755230
          0.0001016529997626
          0.0001124338337374
          0.0001283458516484
          0.0001503298680080
          0.0001793108137095
          0.0002163018622285
          0.0002625118249753
          0.0003194329090626
          0.0003889135401070
          0.0004732281801235
          0.0000453562989163
          0.0000481072875276
          0.0000545747390748
          0.0000654778370558
          0.0000812119557302
          0.0001021110788462
          0.0001286587890980
          0.0001615746970305
          0.0002018427864154
          0.0002507318749359
          0.0003098247864668
          0.0003810613555267
          0.0004667964498222
          0.0000052751874375
          0.0000168803099586
          0.0000308064262168
          0.0000475182164804
          0.0000675722983674
          0.0000916368167227
          0.0001205143882433
          0.0001551677043991
          0.0001967514782805
          0.0002466517928238
          0.0003065322693163
          0.0003783892051006
          0.0004646176486931
          0.0000052751874375
          0.0000168803099586
          0.0000308064262168
          0.0000475182164804
          0.0000675722983674
          0.0000916368167227
          0.0001205143882433
          0.0001551677043991
          0.0001967514782805
          0.0002466517928238
          0.0003065322693163
          0.0003783892051006
          0.0004646176486931
          0.0000052751874375
          0.0000168803099586
          0.0000308064262168
          0.0000475182164804
          0.0000675722983674
          0.0000916368167227
          0.0001205143882433
          0.0001551677043991
          0.0001967514782805
          0.0002466517928238
          0.0003065322693163
          0.0003783892051006
          0.0004646176486931
          0.0000052751874375
          0.0000168803099586
          0.0000308064262168
          0.0000475182164804
          0.0000675722983674
          0.0000916368167227
          0.0001205143882433
          0.0001551677043991
          0.0001967514782805
          0.0002466517928238
          0.0003065322693163
          0.0003783892051006
          0.0004646176486931
          0.0005680916998256
          0.0000052751874375
          0.0000168803099586
          0.0000308064262168
          0.0000475182164804
          0.0000675722983674
          0.0000916368167227
          0.0001205143882433
          0.0001551677043991
          0.0001967514782805
          0.0002466517928238
          0.0003065322693163
          0.0003783892051006
          0.0004646176486931
          0.0005680916998256
          0.0006922607626907
          0.0000052751874375
          0.0000168803099586
          0.0000308064262168
          0.0000475182164804
          0.0000675722983674
          0.0000916368167227
          0.0001205143882433
          0.0001551677043991
          0.0001967514782805
          0.0002466517928238
          0.0003065322693163
          0.0003783892051006
          0.0004646176486931
          0.0005680916998256
          0.0006922607626907
          0.0008412638502871
          0.0010200671611576
          0.0012346310238008
          0.0000052751874375
          0.0000168803099586
          0.0000308064262168
          0.0000475182164804
          0.0000675722983674
          0.0000916368167227