<VTKFile type="UnstructuredGrid" version="0.1" byte_order="BigEndian">
  <UnstructuredGrid>
    <Piece NumberOfPoints="1509" NumberOfCells="655">
      <Points>
        <DataArray type="Float32" NumberOfComponents="3" Format="ascii">
          2.000000 0.400000 0.0
          0.001097 0.400000 0.0
          2.000000 0.021585 0.0
          0.001097 0.044816 0.0
          0.001369 0.031106 0.0
          2.000000 0.004980 0.0
          2.000000 0.005986 0.0
          2.000000 0.007194 0.0
          2.000000 0.008643 0.0
          2.000000 0.010382 0.0
          2.000000 0.012469 0.0
          2.000000 0.014974 0.0
          2.000000 0.017979 0.0
          2.000000 0.025913 0.0
          2.000000 0.031106 0.0
          2.000000 0.037338 0.0
          2.000000 0.044816 0.0
          2.000000 0.053789 0.0
          2.000000 0.064558 0.0
          2.000000 0.077480 0.0
          2.000000 0.092987 0.0
          2.000000 0.111594 0.0
          2.000000 0.133924 0.0
          2.000000 0.160719 0.0
          2.000000 0.192874 0.0
          2.000000 0.231459 0.0
          2.000000 0.277762 0.0
          2.000000 0.333324 0.0
          1.666622 0.400000 0.0
          1.388808 0.400000 0.0
          1.157296 0.400000 0.0
          0.964369 0.400000 0.0
          0.803597 0.400000 0.0
          0.669620 0.400000 0.0
          0.557972 0.400000 0.0
          0.464933 0.400000 0.0
          0.387400 0.400000 0.0
          0.322789 0.400000 0.0
          0.268947 0.400000 0.0
          0.224079 0.400000 0.0
          0.186688 0.400000 0.0
          0.155530 0.400000 0.0
          0.129564 0.400000 0.0
          0.107926 0.400000 0.0
          0.089894 0.400000 0.0
          0.074868 0.400000 0.0
          0.062346 0.400000 0.0
          0.051911 0.400000 0.0
          0.043215 0.400000 0.0
          0.035969 0.400000 0.0
          0.029930 0.400000 0.0
          0.024898 0.400000 0.0
          0.020704 0.400000 0.0
          0.017209 0.400000 0.0
          0.014297 0.400000 0.0
          0.011870 0.400000 0.0
          0.009848 0.400000 0.0
          0.008163 0.400000 0.0
          0.006758 0.400000 0.0
          0.005588 0.400000 0.0
          0.004613 0.400000 0.0
          0.003800 0.400000 0.0
          0.003123 0.400000 0.0
          0.002558 0.400000 0.0
          0.002088 0.400000 0.0
          0.001696 0.400000 0.0
          0.001369 0.400000 0.0
          0.000870 0.400000 0.0
          0.000681 0.400000 0.0
          0.000524 0.400000 0.0
          0.000393 0.400000 0.0
          0.000283 0.400000 0.0
          0.000192 0.400000 0.0
          0.000116 0.400000 0.0
          0.000053 0.400000 0.0
          0.000870 0.044816 0.0
          0.000524 0.044816 0.0
          0.000681 0.044816 0.0
          0.000393 0.044816 0.0
          0.000116 0.044816 0.0
          0.000192 0.044816 0.0
          0.000116 0.037338 0.0
          0.000116 0.031106 0.0
          0.000053 0.031106 0.0
          0.000283 0.044816 0.0
          0.002088 0.037338 0.0
          0.002558 0.037338 0.0
          0.129564 0.021585 0.0
          0.155530 0.021585 0.0
          0.387400 0.021585 0.0
          0.464933 0.021585 0.0
          0.268947 0.021585 0.0
          0.322789 0.021585 0.0
          0.009848 0.037338 0.0
          0.011870 0.037338 0.0
          1.388808 0.021585 0.0
          1.666622 0.021585 0.0
          0.107926 0.021585 0.0
          0.557972 0.021585 0.0
          0.669620 0.021585 0.0
          0.089894 0.021585 0.0
          0.003123 0.037338 0.0
          0.003800 0.037338 0.0
          0.051911 0.021585 0.0
          0.062346 0.021585 0.0
          0.008163 0.037338 0.0
          0.001696 0.037338 0.0
          0.001369 0.037338 0.0
          0.004613 0.037338 0.0
          1.157296 0.021585 0.0
          0.035969 0.025913 0.0
          0.043215 0.025913 0.0
          0.014297 0.031106 0.0
          0.014297 0.025913 0.0
          0.224079 0.021585 0.0
          0.014297 0.037338 0.0
          0.029930 0.025913 0.0
          0.043215 0.021585 0.0
          0.186688 0.021585 0.0
          0.964369 0.021585 0.0
          0.074868 0.021585 0.0
          0.005588 0.037338 0.0
          0.006758 0.037338 0.0
          0.017209 0.025913 0.0
          0.020704 0.025913 0.0
          0.024898 0.025913 0.0
          0.803597 0.021585 0.0
          0.001097 0.333324 0.0
          0.001097 0.277762 0.0
          0.001097 0.231459 0.0
          0.001097 0.133924 0.0
          0.001097 0.111594 0.0
          0.001097 0.192874 0.0
          0.001097 0.160719 0.0
          0.001097 0.077480 0.0
          0.001097 0.064558 0.0
          0.001097 0.092987 0.0
          0.001097 0.053789 0.0
          0.001369 0.025913 0.0
          0.001369 0.021585 0.0
          0.001696 0.014974 0.0
          0.001696 0.012469 0.0
          0.001696 0.010382 0.0
          0.001696 0.008643 0.0
          0.001696 0.007194 0.0
          0.001696 0.005986 0.0
          0.001696 0.004980 0.0
          0.001696 0.002859 0.0
          0.001696 0.002374 0.0
          0.001696 0.001970 0.0
          0.001696 0.017979 0.0
          0.001696 0.004141 0.0
          0.001696 0.003442 0.0
          0.001696 0.021585 0.0
          0.001097 0.037338 0.0
          0.001097 0.031106 0.0
          0.000053 0.000625 0.0
          0.000053 0.000760 0.0
          0.000053 0.000923 0.0
          0.000053 0.001118 0.0
          0.000053 0.001352 0.0
          0.000053 0.001633 0.0
          0.000053 0.001970 0.0
          0.000053 0.002374 0.0
          0.000053 0.002859 0.0
          0.000053 0.003442 0.0
          0.000053 0.004141 0.0
          0.000053 0.004980 0.0
          0.000053 0.005986 0.0
          0.000053 0.007194 0.0
          0.000053 0.008643 0.0
          0.000053 0.010382 0.0
          0.000053 0.012469 0.0
          0.000053 0.014974 0.0
          0.000053 0.017979 0.0
          0.000053 0.021585 0.0
          0.000053 0.025913 0.0
          0.000116 0.000625 0.0
          0.000116 0.000760 0.0
          0.000116 0.000923 0.0
          0.000116 0.001118 0.0
          0.000116 0.001352 0.0
          0.000116 0.001633 0.0
          0.000116 0.001970 0.0
          0.000116 0.002374 0.0
          0.000116 0.002859 0.0
          0.000116 0.003442 0.0
          0.000116 0.004141 0.0
          0.000116 0.004980 0.0
          0.000116 0.005986 0.0
          0.000116 0.007194 0.0
          0.000116 0.008643 0.0
          0.000116 0.010382 0.0
          0.000116 0.012469 0.0
          0.000116 0.014974 0.0
          0.000116 0.017979 0.0
          0.000116 0.021585 0.0
          0.000116 0.025913 0.0
          0.000192 0.000760 0.0
          0.000192 0.000923 0.0
          0.000192 0.001118 0.0
          0.000192 0.001352 0.0
          0.000192 0.001633 0.0
          0.000192 0.001970 0.0
          0.000192 0.002374 0.0
          0.000192 0.002859 0.0
          0.000192 0.003442 0.0
          0.000192 0.004141 0.0
          0.000192 0.004980 0.0
          0.000192 0.005986 0.0
          0.000192 0.007194 0.0
          0.000192 0.008643 0.0
          0.000192 0.010382 0.0
          0.000192 0.012469 0.0
          0.000192 0.014974 0.0
          0.000192 0.017979 0.0
          0.000192 0.021585 0.0
          0.000192 0.025913 0.0
          0.000192 0.031106 0.0
          0.000192 0.037338 0.0
          0.000283 0.000923 0.0
          0.000283 0.001118 0.0
          0.000283 0.001352 0.0
          0.000283 0.001633 0.0
          0.000283 0.001970 0.0
          0.000283 0.002374 0.0
          0.000283 0.002859 0.0
          0.000283 0.003442 0.0
          0.000283 0.004141 0.0
          0.000283 0.004980 0.0
          0.000283 0.005986 0.0
          0.000283 0.007194 0.0
          0.000283 0.008643 0.0
          0.000283 0.010382 0.0
          0.000283 0.012469 0.0
          0.000283 0.014974 0.0
          0.000283 0.017979 0.0
          0.000283 0.021585 0.0
          0.000283 0.025913 0.0
          0.000283 0.031106 0.0
          0.000283 0.037338 0.0
          0.000393 0.001633 0.0
          0.000393 0.001970 0.0
          0.000393 0.002374 0.0
          0.000393 0.002859 0.0
          0.000393 0.003442 0.0
          0.000393 0.004141 0.0
          0.000393 0.004980 0.0
          0.000393 0.005986 0.0
          0.000393 0.007194 0.0
          0.000393 0.008643 0.0
          0.000393 0.010382 0.0
          0.000393 0.012469 0.0
          0.000393 0.014974 0.0
          0.000393 0.017979 0.0
          0.000393 0.021585 0.0
          0.000393 0.025913 0.0
          0.000393 0.031106 0.0
          0.000393 0.037338 0.0
          0.000524 0.001633 0.0
          0.000524 0.001970 0.0
          0.000524 0.002374 0.0
          0.000524 0.002859 0.0
          0.000524 0.003442 0.0
          0.000524 0.004141 0.0
          0.000524 0.004980 0.0
          0.000524 0.005986 0.0
          0.000524 0.007194 0.0
          0.000524 0.008643 0.0
          0.000524 0.010382 0.0
          0.000524 0.012469 0.0
          0.000524 0.014974 0.0
          0.000524 0.017979 0.0
          0.000524 0.021585 0.0
          0.000524 0.025913 0.0
          0.000524 0.031106 0.0
          0.000524 0.037338 0.0
          0.000681 0.001633 0.0
          0.000681 0.001970 0.0
          0.000681 0.002374 0.0
          0.000681 0.002859 0.0
          0.000681 0.003442 0.0
          0.000681 0.004141 0.0
          0.000681 0.004980 0.0
          0.000681 0.005986 0.0
          0.000681 0.007194 0.0
          0.000681 0.008643 0.0
          0.000681 0.010382 0.0
          0.000681 0.012469 0.0
          0.000681 0.014974 0.0
          0.000681 0.017979 0.0
          0.000681 0.021585 0.0
          0.000681 0.025913 0.0
          0.000681 0.031106 0.0
          0.000681 0.037338 0.0
          0.000870 0.001633 0.0
          0.000870 0.001970 0.0
          0.000870 0.002374 0.0
          0.000870 0.002859 0.0
          0.000870 0.003442 0.0
          0.000870 0.004141 0.0
          0.000870 0.004980 0.0
          0.000870 0.005986 0.0
          0.000870 0.007194 0.0
          0.000870 0.008643 0.0
[...]
      <CellData Scalars="scalars">
        <DataArray type="Float32" Name="rank" Format="ascii">
          0
          0
          0
          0
          0
          0
          0
          0
          0
          0
          0
          0
          0
          0
          0
          0
          0
          0
          0
          0
          0
          0
          0
          0
          0
          0
          0
          0
          0
          0
          0
          0
          0
          0
          0
          0
          0
          0
          0
          0
          0
          0
          0
          0
          0
          0
          0
          0
          0
          0
          0
          0
          0
          0
          0
          0
          0
          0
          0
          0
          0
          0
          0
          0
          0
          0
          0
          0
          0
          0
          0
          0
          0
          0
          0
          0
          0
          0
          0
          0
          0
          0
          0
          0
          0
          0
          0
          0
          0
          0
          0
          0
          0
          0
          0
          0
          0
          0
          0
          0
          0
          0
          0
          0
          0
          0
          0
          0
          0
          0
          0
          0
          0
          0
          0
          0
          0
          0
          0
          0
          0
          0
          0
          0
          0
          0
          0
          0
          0
          0
          0
          0
          0
          0
          0
          0
          0
          0
          0
          0
          0
          0
          0
          0
          0
          0
          0
          0
          0
          0
          0
          0
          0
          0
          0
          0
          0
          0
          0
          0
          0
          0
          0
          0
          0
          0
          0
          0
          0
          0
          0
          0
          0
          0
          0
          0
          0
          0
          0
          0
          0
          0
          0
          0
          0
          0
          0
          0
          0
          0
          0
          0
          0
          0
          0
          0
          0
          0
          0
          0
          0
          0
          0
          0
          0
          0
          0
          0
          0
          0
          0
          0
          0
          0
          0
          0
          0
          0
          0
          0
          0
          0
          0
          0
          0
          0
          0
          0
          0
          0
          0
          0
          0
          0
          0
          0
          0
          0
          0
          0
          0
          0
          0
          0
          0
          0
          0
          0
          0
          0
          0
          0
          0
          0
          0
          0
          0
          0
          0
          0
          0
          0
          0
          0
          0
          0
          0
          0
          0
          0
          0
          0
          0
          0
          0
          0
          0
          0
          0
          0
          0
          0
          0
          0
          0
          0
          0
          0
          0
          0
          0
          0
          0
          0
          0
          0
          0
          0
          0
          0
          0
          0
          0
          0
          0
          0
          0
          0
          0
          0
          0
          0
          0
          0
          0
          0
          0
          0
          0
          0
          0
          0
          0
          0
          0
          0
          0
          0
          0
          0
          0
          0
          0
          0
          0
          0
          0
          0
          0
          0
          0
          0
          0
          0
          0
          0
          0
          0
          0
          0
          0
          0
          0
          0
          0
          0
          0
          0
          0
          0
          0
          0
          0
          0
          0
          0
          0
          0
          0
          0
          0
          0
          0
          0
          0
          0
          0
          0
          0
          0
          0
          0
          0
          0
          0
          0
          0
          0
          0
          0
          0
          0
          0
          0
          0
          0
          0
          0
          0
          0
          0
          0
          0
          0
          0
          0
          0
          0
          0
          0
          0
          0
          0
          0
          0
          0
          0
          0
          0
          0
          0
          0
          0
          0
          0
          0
          0
          0
          0
          0
          0
          0
          0
          0
          0
          0
          0
          0
          0
          0
          0
          0
          0
          0
          0
          0
          0
          0
          0
          0
          0
          0
          0
          0
          0
          0
          0
          0
          0
          0
          0
          0
          0
          0
          0
          0
          0
          0
          0
          0
          0
          0
          0
          0
          0
          0
          0
          0
          0
          0
          0
          0
          0
          0
          0
          0
          0
          0
          0
          0
          0
          0
          0
          0
          0
          0
          0
          0
          0
          0
          0
          0
          0
          0
          0
          0
          0
          0
          0
          0
          0
          0
          0
          0
          0
          0
          0
          0
          0
          0
          0
          0
          0
          0
          0
          0
          0
          0
          0
          0
          0
          0
          0
          0
          0
          0
          0
          0
          0
          0
          0
          0
          0
          0
          0
          0
          0
          0
          0
          0
          0
          0
          0
          0
          0
          0
          0
          0
          0
          0
          0
          0
          0
          0
          0
          0
          0
          0
          0
          0
          0
          0
          0
          0
          0
          0
          0
          0
          0
          0
          0
          0
          0
          0
          0
          0
          0
          0
          0
          0
          0
          0
          0
          0
          0
          0
          0
          0
          0
          0
          0
          0
          0
          0
          0
          0
          0
          0
          0
          0
          0
          0
          0
          0
          0
          0
          0
          0
          0
          0
          0
          0
          0
          0
          0
          0
          0
          0
          0
          0
          0
          0
          0
          0
          0
          0
          0
          0
          0
          0
          0
          0
          0
          0
          0
          0
          0
          0
          0
          0
          0
          0
          0
          0
          0
        </DataArray>
        <DataArray type="Float32" Name="Wall Distance" Format="ascii">
          0.0342217719556417
          0.0410766840587555
          0.0493025801204606
          0.0591736572400648
          0.0710189521174701
          0.0852333084133920
          0.1022905394961885
          0.1227592209095619
          0.1473216428271696
          0.1767965544325951
          0.2121664549627729
          0.2546103432849901
          0.3055430186139738
          0.3666622401003001
          0.0410766840587555
          0.0493025801204606
          0.0591736572400648
          0.0710189521174701
          0.0852333084133919
          0.1022905394961885
          0.1227592209095619
          0.1473216428271696
          0.1767965544325951
          0.2121664549627729
          0.2546103432849901
          0.3055430186139738
          0.3666622401003001
          0.0410766840587555
          0.0493025801204606
          0.0591736572400648
          0.0710189521174701
          0.0852333084133919
          0.1022905394961885
          0.1227592209095619
          0.1473216428271696
          0.1767965544325951
          0.2121664549627729
          0.2546103432849901
          0.3055430186139738
          0.3666622401003001
          0.0410766840587555
          0.0493025801204606
          0.0591736572400648
          0.0710189521174701
          0.0852333084133920
          0.1022905394961885
          0.1227592209095619
          0.1473216428271696
          0.1767965544325951
          0.2121664549627729
          0.2546103432849901
          0.3055430186139738
          0.3666622401003001
          0.0410766840587555
          0.0493025801204606
          0.0591736572400648
          0.0710189521174701
          0.0852333084133920
          0.1022905394961885
          0.1227592209095619
          0.1473216428271696
          0.1767965544325951
          0.2121664549627729
          0.2546103432849901
          0.3055430186139738
          0.3666622401003001
          0.0410766840587555
          0.0493025801204606
          0.0591736572400648
          0.0710189521174701
          0.0852333084133920
          0.1022905394961885
          0.1227592209095619
          0.1473216428271696
          0.1767965544325951
          0.2121664549627729
          0.2546103432849901
          0.3055430186139738
          0.3666622401003001
          0.0410766840587555
          0.0493025801204606
          0.0591736572400648
          0.0710189521174701
          0.0852333084133920
          0.1022905394961885
          0.1227592209095619
          0.1473216428271696
          0.1767965544325951
          0.2121664549627729
          0.2546103432849901
          0.3055430186139738
          0.3666622401003001
          0.0410766840587555
          0.0493025801204606
          0.0591736572400648
          0.0710189521174701
          0.0852333084133919
          0.1022905394961885
          0.1227592209095619
          0.1473216428271696
          0.1767965544325951
          0.2121664549627729
          0.2546103432849901
          0.3055430186139738
          0.3666622401003001
          0.0410766840587555
          0.0493025801204606
          0.0591736572400648
          0.0710189521174701
          0.0852333084133919
          0.1022905394961885
          0.1227592209095619
          0.1473216428271696
          0.1767965544325951
          0.2121664549627729
          0.2546103432849901
          0.3055430186139738
          0.3666622401003001
          0.0410766840587555
          0.0493025801204606
          0.0591736572400648
          0.0710189521174701
          0.0852333084133920
          0.1022905394961885
          0.1227592209095619
          0.1473216428271696
          0.1767965544325951
          0.2121664549627729
          0.2546103432849901
          0.3055430186139738
          0.3666622401003001
          0.0410766840587555
          0.0493025801204606
          0.0591736572400648
          0.0710189521174701
          0.0852333084133920
          0.1022905394961885
          0.1227592209095619
          0.1473216428271696
          0.1767965544325951
          0.2121664549627729
          0.2546103432849901
          0.3055430186139738
          0.3666622401003001
          0.0410766840587555
          0.0493025801204606
          0.0591736572400648
          0.0710189521174701
          0.0852333084133920
          0.1022905394961885
          0.1227592209095619
          0.1473216428271696
          0.1767965544325951
          0.2121664549627729
          0.2546103432849901
          0.3055430186139738
          0.3666622401003001
          0.0410766840587555
          0.0493025801204606
          0.0591736572400648
          0.0710189521174701
          0.0852333084133920
          0.1022905394961885
          0.1227592209095619
          0.1473216428271696
          0.1767965544325951
          0.2121664549627729
          0.2546103432849901
          0.3055430186139738
          0.3666622401003001
          0.0285093462710833
          0.0342217719556417
          0.0410766840587555
          0.0493025801204606
          0.0591736572400648
          0.0710189521174701
          0.0852333084133919
          0.1022905394961885
          0.1227592209095619
          0.1473216428271696
          0.1767965544325951
          0.2121664549627729
          0.2546103432849901
          0.3055430186139738
          0.3666622401003001
          0.0285093462710833
          0.0342217719556417
          0.0410766840587555
          0.0493025801204606
          0.0591736572400648
          0.0710189521174701
          0.0852333084133919
          0.1022905394961885
          0.1227592209095619
          0.1473216428271696
          0.1767965544325951
          0.2121664549627730
          0.2546103432849901
          0.3055430186139738
          0.3666622401003001
          0.0285093462710833
          0.0342217719556417
          0.0410766840587555
          0.0493025801204606
          0.0591736572400648
          0.0710189521174701
          0.0852333084133920
          0.1022905394961885
          0.1227592209095619
          0.1473216428271696
          0.1767965544325951
          0.2121664549627729
          0.2546103432849901
          0.3055430186139738
          0.3666622401003001
          0.0285093462710833
          0.0342217719556417
          0.0410766840587555
          0.0493025801204606
          0.0591736572400648
          0.0710189521174701
          0.0852333084133919
          0.1022905394961885
          0.1227592209095619
          0.1473216428271697
          0.1767965544325951
          0.2121664549627729
          0.2546103432849901
          0.3055430186139738
          0.3666622401003001
          0.0285093462710833
          0.0342217719556417
          0.0410766840587555
          0.0493025801204606
          0.0591736572400648
          0.0710189521174701
          0.0852333084133919
          0.1022905394961885
          0.1227592209095619
          0.1473216428271697
          0.1767965544325951
          0.2121664549627729
          0.2546103432849901
          0.3055430186139738
          0.3666622401003001
          0.0285093462710833
          0.0342217719556417
          0.0410766840587555
          0.0493025801204606
          0.0591736572400648
          0.0710189521174701
          0.0852333084133919
          0.1022905394961885
          0.1227592209095619
          0.1473216428271696
          0.1767965544325951
          0.2121664549627729
          0.2546103432849901
          0.3055430186139738
          0.3666622401003001
          0.0237489921756302
          0.0285093462710833
          0.0342217719556417
          0.0410766840587555
          0.0493025801204606
          0.0591736572400648
          0.0710189521174701
          0.0852333084133919
          0.1022905394961885
          0.1227592209095619
          0.1473216428271696
          0.1767965544325951
          0.2121664549627729
          0.2546103432849901
          0.3055430186139738
          0.3666622401003001
          0.0237489921756302
          0.0285093462710833
          0.0342217719556417
          0.0410766840587555
          0.0493025801204606
          0.0591736572400648
          0.0710189521174701
          0.0852333084133919
          0.1022905394961885
          0.1227592209095619
          0.1473216428271696
          0.1767965544325951
          0.2121664549627729
          0.2546103432849901
          0.3055430186139738
          0.3666622401003001
          0.0237489921756302
          0.0285093462710833
          0.0342217719556417
          0.0410766840587555
          0.0493025801204606
          0.0591736572400648
          0.0710189521174701
          0.0852333084133919
          0.1022905394961885
          0.1227592209095619
          0.1473216428271696
          0.1767965544325952
          0.2121664549627729
          0.2546103432849901
          0.3055430186139738
          0.3666622401003001
          0.0237489921756302
          0.0285093462710833
          0.0342217719556417
          0.0410766840587555
          0.0493025801204606
          0.0591736572400648
          0.0710189521174701
          0.0852333084133920
          0.1022905394961885
          0.1227592209095619
          0.1473216428271696
          0.1767965544325952
          0.2121664549627730
          0.2546103432849901
          0.3055430186139737
          0.3666622401003001
          0.0237489921756302
          0.0285093462710833
          0.0342217719556417
          0.0410766840587555
          0.0493025801204606
          0.0591736572400648
          0.0710189521174701
          0.0852333084133920
          0.1022905394961885
          0.1227592209095619
          0.1473216428271696
          0.1767965544325951
          0.2121664549627729
          0.2546103432849901
          0.3055430186139737
          0.3666622401003001
          0.0237489921756302
          0.0285093462710833
          0.0342217719556417
          0.0410766840587555
          0.0493025801204606
          0.0591736572400648
          0.0710189521174701
          0.0852333084133920
          0.1022905394961885
          0.1227592209095619
          0.1473216428271696
          0.1767965544325951
          0.2121664549627729
          0.2546103432849901
          0.3055430186139738
          0.3666622401003001
          0.0237489921756302
          0.0285093462710833
          0.0342217719556417
          0.0410766840587555
          0.0493025801204606
          0.0591736572400648
          0.0710189521174701
          0.0852333084133920
          0.1022905394961885
          0.1227592209095619
          0.1473216428271696
          0.1767965544325951
          0.2121664549627729
          0.2546103432849901
          0.3055430186139738
          0.3666622401003001
          0.0237489921756302
          0.0285093462710833
          0.0342217719556417
          0.0410766840587555
          0.0493025801204606
          0.0591736572400648
          0.0710189521174701
          0.0852333084133920
          0.1022905394961885
          0.1227592209095619
          0.1473216428271696
          0.1767965544325952
          0.2121664549627730
          0.2546103432849901
          0.3055430186139738
          0.3666622401003001
          0.0237489921756302
          0.0285093462710833
          0.0342217719556417
          0.0410766840587555
          0.0493025801204606
          0.0591736572400648
          0.0710189521174701
          0.0852333084133920
          0.1022905394961885
          0.1227592209095619
          0.1473216428271696
          0.1767965544325952
          0.2121664549627729
          0.2546103432849901
          0.3055430186139738
          0.3666622401003001
          0.0237489921756302
          0.0285093462710833
          0.0342217719556417
          0.0410766840587555
          0.0493025801204606
          0.0591736572400648
          0.0710189521174701
          0.0852333084133920