<VTKFile type="UnstructuredGrid" version="0.1" byte_order="BigEndian">
  <UnstructuredGrid>
    <Piece NumberOfPoints="1826" NumberOfCells="656">
      <Points>
        <DataArray type="Float32" NumberOfComponents="3" Format="ascii">
          0.000000 0.400000 0.0
          -0.300000 0.400000 0.0
          0.001097 0.400000 0.0
          -0.300000 0.003442 0.0
          0.000000 0.031106 0.0
          0.001097 0.044816 0.0
          0.000000 0.000625 0.0
          0.000000 0.000760 0.0
          0.000000 0.000923 0.0
          0.000000 0.001118 0.0
          0.000000 0.001352 0.0
          0.000000 0.001633 0.0
          0.000000 0.001970 0.0
          0.000000 0.002374 0.0
          0.000000 0.002859 0.0
          0.000000 0.003442 0.0
          0.000000 0.004141 0.0
          0.000000 0.004980 0.0
          0.000000 0.005986 0.0
          0.000000 0.007194 0.0
          0.000000 0.008643 0.0
          0.000000 0.010382 0.0
          0.000000 0.012469 0.0
          0.000000 0.014974 0.0
          0.000000 0.017979 0.0
          0.000000 0.021585 0.0
          0.000000 0.025913 0.0
          0.000000 0.037338 0.0
          0.000000 0.044816 0.0
          0.000000 0.053789 0.0
          0.000000 0.064558 0.0
          0.000000 0.077480 0.0
          0.000000 0.092987 0.0
          0.000000 0.111594 0.0
          0.000000 0.133924 0.0
          0.000000 0.160719 0.0
          0.000000 0.192874 0.0
          0.000000 0.231459 0.0
          0.000000 0.277762 0.0
          0.000000 0.333324 0.0
          -0.000037 0.400000 0.0
          -0.000090 0.400000 0.0
          -0.000163 0.400000 0.0
          -0.000265 0.400000 0.0
          -0.000409 0.400000 0.0
          -0.000610 0.400000 0.0
          -0.000891 0.400000 0.0
          -0.001285 0.400000 0.0
          -0.001836 0.400000 0.0
          -0.002607 0.400000 0.0
          -0.003688 0.400000 0.0
          -0.005200 0.400000 0.0
          -0.007317 0.400000 0.0
          -0.010281 0.400000 0.0
          -0.014431 0.400000 0.0
          -0.020241 0.400000 0.0
          -0.028375 0.400000 0.0
          -0.039762 0.400000 0.0
          -0.055704 0.400000 0.0
          -0.078023 0.400000 0.0
          -0.109270 0.400000 0.0
          -0.153015 0.400000 0.0
          -0.214259 0.400000 0.0
          -0.300000 0.333324 0.0
          -0.300000 0.277761 0.0
          -0.300000 0.231459 0.0
          -0.300000 0.192874 0.0
          -0.300000 0.160719 0.0
          -0.300000 0.133924 0.0
          -0.300000 0.111594 0.0
          -0.300000 0.092986 0.0
          -0.300000 0.077480 0.0
          -0.300000 0.064558 0.0
          -0.300000 0.053789 0.0
          -0.300000 0.044816 0.0
          -0.300000 0.037338 0.0
          -0.300000 0.031106 0.0
          -0.300000 0.025913 0.0
          -0.300000 0.021585 0.0
          -0.300000 0.017979 0.0
          -0.300000 0.014974 0.0
          -0.300000 0.012469 0.0
          -0.300000 0.010382 0.0
          -0.300000 0.008643 0.0
          -0.300000 0.007194 0.0
          -0.300000 0.005986 0.0
          -0.300000 0.004980 0.0
          -0.300000 0.004141 0.0
          -0.300000 0.002859 0.0
          -0.300000 0.002374 0.0
          -0.300000 0.001970 0.0
          -0.300000 0.001633 0.0
          -0.300000 0.001352 0.0
          -0.300000 0.001118 0.0
          -0.300000 0.000923 0.0
          -0.300000 0.000760 0.0
          1.666622 0.400000 0.0
          1.388808 0.400000 0.0
          1.157296 0.400000 0.0
          0.964369 0.400000 0.0
          0.803597 0.400000 0.0
          0.669620 0.400000 0.0
          0.557972 0.400000 0.0
          0.464933 0.400000 0.0
          0.387400 0.400000 0.0
          0.322789 0.400000 0.0
          0.268947 0.400000 0.0
          0.224079 0.400000 0.0
          0.186688 0.400000 0.0
          0.155530 0.400000 0.0
          0.129564 0.400000 0.0
          0.107926 0.400000 0.0
          0.089894 0.400000 0.0
          0.074868 0.400000 0.0
          0.062346 0.400000 0.0
          0.051911 0.400000 0.0
          0.043215 0.400000 0.0
          0.035969 0.400000 0.0
          0.029930 0.400000 0.0
          0.024898 0.400000 0.0
          0.020704 0.400000 0.0
          0.017209 0.400000 0.0
          0.014297 0.400000 0.0
          0.011870 0.400000 0.0
          0.009848 0.400000 0.0
          0.008163 0.400000 0.0
          0.006758 0.400000 0.0
          0.005588 0.400000 0.0
          0.004613 0.400000 0.0
          0.003800 0.400000 0.0
          0.003123 0.400000 0.0
          0.002558 0.400000 0.0
          0.002088 0.400000 0.0
          0.001696 0.400000 0.0
          0.001369 0.400000 0.0
          0.000870 0.400000 0.0
          0.000681 0.400000 0.0
          0.000524 0.400000 0.0
          0.000393 0.400000 0.0
          0.000283 0.400000 0.0
          0.000192 0.400000 0.0
          0.000116 0.400000 0.0
          0.000053 0.400000 0.0
          0.000870 0.044816 0.0
          0.000524 0.044816 0.0
          0.000681 0.044816 0.0
          0.000393 0.044816 0.0
          0.000116 0.044816 0.0
          0.000192 0.044816 0.0
          0.000116 0.037338 0.0
          0.000116 0.031106 0.0
          0.000053 0.031106 0.0
          0.000283 0.044816 0.0
          -0.000037 0.031106 0.0
          -0.000090 0.031106 0.0
          -0.000163 0.031106 0.0
          -0.000265 0.031106 0.0
          -0.000409 0.031106 0.0
          -0.000409 0.025913 0.0
          -0.000610 0.025913 0.0
          -0.000610 0.021585 0.0
          -0.000610 0.017979 0.0
          -0.000610 0.012469 0.0
          -0.000610 0.014974 0.0
          -0.000891 0.012469 0.0
          -0.001836 0.012469 0.0
          -0.001284 0.012469 0.0
          -0.002607 0.012469 0.0
          -0.003687 0.012469 0.0
          -0.003687 0.010382 0.0
          -0.010281 0.008643 0.0
          -0.007317 0.008643 0.0
          -0.010281 0.007194 0.0
          -0.014431 0.007194 0.0
          -0.039762 0.007194 0.0
          -0.028375 0.007194 0.0
          -0.039762 0.005986 0.0
          -0.055704 0.005986 0.0
          -0.078023 0.003442 0.0
          -0.055704 0.003442 0.0
          -0.109270 0.003442 0.0
          -0.214259 0.003442 0.0
          -0.153015 0.003442 0.0
          -0.055704 0.004141 0.0
          -0.055704 0.004980 0.0
          -0.020241 0.007194 0.0
          -0.005200 0.008643 0.0
          -0.003687 0.008643 0.0
          0.002088 0.037338 0.0
          0.002558 0.037338 0.0
          0.129564 0.021585 0.0
          0.155530 0.021585 0.0
          0.387400 0.021585 0.0
          0.464933 0.021585 0.0
          0.268947 0.021585 0.0
          0.322789 0.021585 0.0
          0.009848 0.037338 0.0
          0.011870 0.037338 0.0
          1.388808 0.021585 0.0
          1.666622 0.021585 0.0
          0.107926 0.021585 0.0
          0.557972 0.021585 0.0
          0.669620 0.021585 0.0
          0.089894 0.021585 0.0
          0.003123 0.037338 0.0
          0.003800 0.037338 0.0
          0.051911 0.021585 0.0
          0.062346 0.021585 0.0
          0.008163 0.037338 0.0
          0.001696 0.037338 0.0
          0.001369 0.037338 0.0
          0.004613 0.037338 0.0
          1.157296 0.021585 0.0
          0.035969 0.025913 0.0
          0.043215 0.025913 0.0
          0.014297 0.031106 0.0
          0.014297 0.025913 0.0
          0.224079 0.021585 0.0
          0.014297 0.037338 0.0
          0.029930 0.025913 0.0
          0.043215 0.021585 0.0
          0.186688 0.021585 0.0
          0.964369 0.021585 0.0
          0.074868 0.021585 0.0
          0.005588 0.037338 0.0
          0.006758 0.037338 0.0
          0.017209 0.025913 0.0
          0.020704 0.025913 0.0
          0.024898 0.025913 0.0
          0.803597 0.021585 0.0
          0.001097 0.333324 0.0
          0.001097 0.277762 0.0
          0.001097 0.231459 0.0
          0.001097 0.133924 0.0
          0.001097 0.111594 0.0
          0.001097 0.192874 0.0
          0.001097 0.160719 0.0
          0.001097 0.077480 0.0
          0.001097 0.064558 0.0
          0.001097 0.092987 0.0
          0.001097 0.053789 0.0
          0.001097 0.037338 0.0
          0.001097 0.031106 0.0
          -0.214259 0.000760 0.0
          -0.214259 0.000923 0.0
          -0.214259 0.001118 0.0
          -0.214259 0.001352 0.0
          -0.214259 0.001633 0.0
          -0.214259 0.001970 0.0
          -0.214259 0.002374 0.0
          -0.214259 0.002859 0.0
          -0.153015 0.000760 0.0
          -0.153015 0.000923 0.0
          -0.153015 0.001118 0.0
          -0.153015 0.001352 0.0
          -0.153015 0.001633 0.0
          -0.153015 0.001970 0.0
          -0.153015 0.002374 0.0
          -0.153015 0.002859 0.0
          -0.109270 0.000760 0.0
          -0.109270 0.000923 0.0
          -0.109270 0.001118 0.0
          -0.109270 0.001352 0.0
          -0.109270 0.001633 0.0
          -0.109270 0.001970 0.0
          -0.109270 0.002374 0.0
          -0.109270 0.002859 0.0
          -0.078023 0.000625 0.0
          -0.078023 0.000760 0.0
          -0.078023 0.000923 0.0
          -0.078023 0.001118 0.0
          -0.078023 0.001352 0.0
          -0.078023 0.001633 0.0
          -0.078023 0.001970 0.0
          -0.078023 0.002374 0.0
          -0.078023 0.002859 0.0
          -0.055704 0.000625 0.0
          -0.055704 0.000760 0.0
          -0.055704 0.000923 0.0
          -0.055704 0.001118 0.0
          -0.055704 0.001352 0.0
          -0.055704 0.001633 0.0
          -0.055704 0.001970 0.0
          -0.055704 0.002374 0.0
          -0.055704 0.002859 0.0
          -0.039762 0.000625 0.0
          -0.039762 0.000760 0.0
          -0.039762 0.000923 0.0
          -0.039762 0.001118 0.0
          -0.039762 0.001352 0.0
          -0.039762 0.001633 0.0
          -0.039762 0.001970 0.0
          -0.039762 0.002374 0.0
          -0.039762 0.002859 0.0
          -0.039762 0.003442 0.0
          -0.039762 0.004141 0.0
          -0.039762 0.004980 0.0
          -0.028375 0.000625 0.0
          -0.028375 0.000760 0.0
          -0.028375 0.000923 0.0
[...]
      <CellData Scalars="scalars">
        <DataArray type="Float32" Name="rank" Format="ascii">
          3
          3
          3
          3
          3
          3
          3
          3
          3
          3
          3
          3
          3
          3
          3
          3
          3
          3
          3
          3
          3
          3
          3
          3
          3
          3
          3
          3
          3
          3
          3
          3
          3
          3
          3
          3
          3
          3
          3
          3
          3
          3
          3
          3
          3
          3
          3
          3
          3
          3
          3
          3
          3
          3
          3
          3
          3
          3
          3
          3
          3
          3
          3
          3
          3
          3
          3
          3
          3
          3
          3
          3
          3
          3
          3
          3
          3
          3
          3
          3
          3
          3
          3
          3
          3
          3
          3
          3
          3
          3
          3
          3
          3
          3
          3
          3
          3
          3
          3
          3
          3
          3
          3
          3
          3
          3
          3
          3
          3
          3
          3
          3
          3
          3
          3
          3
          3
          3
          3
          3
          3
          3
          3
          3
          3
          3
          3
          3
          3
          3
          3
          3
          3
          3
          3
          3
          3
          3
          3
          3
          3
          3
          3
          3
          3
          3
          3
          3
          3
          3
          3
          3
          3
          3
          3
          3
          3
          3
          3
          3
          3
          3
          3
          3
          3
          3
          3
          3
          3
          3
          3
          3
          3
          3
          3
          3
          3
          3
          3
          3
          3
          3
          3
          3
          3
          3
          3
          3
          3
          3
          3
          3
          3
          3
          3
          3
          3
          3
          3
          3
          3
          3
          3
          3
          3
          3
          3
          3
          3
          3
          3
          3
          3
          3
          3
          3
          3
          3
          3
          3
          3
          3
          3
          3
          3
          3
          3
          3
          3
          3
          3
          3
          3
          3
          3
          3
          3
          3
          3
          3
          3
          3
          3
          3
          3
          3
          3
          3
          3
          3
          3
          3
          3
          3
          3
          3
          3
          3
          3
          3
          3
          3
          3
          3
          3
          3
          3
          3
          3
          3
          3
          3
          3
          3
          3
          3
          3
          3
          3
          3
          3
          3
          3
          3
          3
          3
          3
          3
          3
          3
          3
          3
          3
          3
          3
          3
          3
          3
          3
          3
          3
          3
          3
          3
          3
          3
          3
          3
          3
          3
          3
          3
          3
          3
          3
          3
          3
          3
          3
          3
          3
          3
          3
          3
          3
          3
          3
          3
          3
          3
          3
          3
          3
          3
          3
          3
          3
          3
          3
          3
          3
          3
          3
          3
          3
          3
          3
          3
          3
          3
          3
          3
          3
          3
          3
          3
          3
          3
          3
          3
          3
          3
          3
          3
          3
          3
          3
          3
          3
          3
          3
          3
          3
          3
          3
          3
          3
          3
          3
          3
          3
          3
          3
          3
          3
          3
          3
          3
          3
          3
          3
          3
          3
          3
          3
          3
          3
          3
          3
          3
          3
          3
          3
          3
          3
          3
          3
          3
          3
          3
          3
          3
          3
          3
          3
          3
          3
          3
          3
          3
          3
          3
          3
          3
          3
          3
          3
          3
          3
          3
          3
          3
          3
          3
          3
          3
          3
          3
          3
          3
          3
          3
          3
          3
          3
          3
          3
          3
          3
          3
          3
          3
          3
          3
          3
          3
          3
          3
          3
          3
          3
          3
          3
          3
          3
          3
          3
          3
          3
          3
          3
          3
          3
          3
          3
          3
          3
          3
          3
          3
          3
          3
          3
          3
          3
          3
          3
          3
          3
          3
          3
          3
          3
          3
          3
          3
          3
          3
          3
          3
          3
          3
          3
          3
          3
          3
          3
          3
          3
          3
          3
          3
          3
          3
          3
          3
          3
          3
          3
          3
          3
          3
          3
          3
          3
          3
          3
          3
          3
          3
          3
          3
          3
          3
          3
          3
          3
          3
          3
          3
          3
          3
          3
          3
          3
          3
          3
          3
          3
          3
          3
          3
          3
          3
          3
          3
          3
          3
          3
          3
          3
          3
          3
          3
          3
          3
          3
          3
          3
          3
          3
          3
          3
          3
          3
          3
          3
          3
          3
          3
          3
          3
          3
          3
          3
          3
          3
          3
          3
          3
          3
          3
          3
          3
          3
          3
          3
          3
          3
          3
          3
          3
          3
          3
          3
          3
          3
          3
          3
          3
          3
          3
          3
          3
          3
          3
          3
          3
          3
          3
          3
          3
          3
          3
          3
          3
          3
          3
          3
          3
          3
          3
          3
          3
          3
          3
          3
          3
          3
          3
          3
          3
          3
          3
          3
          3
          3
          3
          3
          3
          3
          3
          3
          3
          3
          3
        </DataArray>
        <DataArray type="Float32" Name="Wall Distance" Format="ascii">
          0.2571838065993107
          0.2571962892554399
          0.2572143010553859
          0.2572402812367716
          0.2572777425706861
          0.2573317426758285
          0.2574095613769987
          0.2575216730915563
          0.2576831411268048
          0.2579156128772256
          0.2582501667891335
          0.2587313588033198
          0.2594229399660928
          0.2604158685885251
          0.2618394032922952
          0.2638761980896895
          0.2667823355818339
          0.2709129674104184
          0.2767534439198132
          0.2849542682952448
          0.2963659379028581
          0.3120674905271704
          0.3333822095092744
          0.3618777699442867
          0.3993565316472725
          0.4478507881529281
          0.1837026838715756
          0.1837201592833938
          0.1837453739088623
          0.1837817404250667
          0.1838341717917653
          0.1839097381279981
          0.1840186088364292
          0.1841754011151666
          0.1844011054291725
          0.1847258240849237
          0.1851926448147245
          0.1858630772848399
          0.1868245963259159
          0.1882009386719515
          0.1901658294772014
          0.1929606659713765
          0.1969161919617549
          0.2024771831389183
          0.2102276017902582
          0.2209120034229034
          0.2354484021624006
          0.2549299950720292
          0.2806187518868661
          0.3139406125923324
          0.3564951984158069
          0.4100896369094232
          0.1312238527516984
          0.1312483157967263
          0.1312836086895439
          0.1313345027018508
          0.1314078620862997
          0.1315135555686749
          0.1316657584489546
          0.1318848056784977
          0.1321998159516669
          0.1326523796389209
          0.1333016862324249
          0.1342315444279501
          0.1355597802974738
          0.1374504196184534
          0.1401287537415000
          0.1438987284186353
          0.1491610295206942
          0.1564290144551230
          0.1663390284728324
          0.1796528380339662
          0.1972535937448299
          0.2201416219132406
          0.2494392030315582
          0.2864118367109147
          0.3325084306538774
          0.3894182002807228
          0.0937497180656298
          0.0937839565176800
          0.0938333416515375
          0.0939045349794314
          0.0940071077304240
          0.0941547947913491
          0.0943672720466263
          0.0946726574131675
          0.0951109953999070
          0.0957390409373766
          0.0966366893701222
          0.0979153602198855
          0.0997284532143002
          0.1022835682768996
          0.1058554594916607
          0.1107978112524184
          0.1175513675081105
          0.1266465485706214
          0.1387010620390206
          0.1544164985362906
          0.1745803358404352
          0.2000791034375911
          0.2319250528565725
          0.2712951415285649
          0.3195796741130634
          0.3784386895747873
          0.0669975019709396
          0.0670454034727756
          0.0671144665894533
          0.0672139665770371
          0.0673571964277017
          0.0675631629159367
          0.0678589539443905
          0.0682829968393868
          0.0688894552531343
          0.0697539932128465
          0.0709810211433524
          0.0727122646607783
          0.0751360106759319
          0.0784957587399615
          0.0830965355464839
          0.0893073963980595
          0.0975601367583182
          0.1083466880481940
          0.1222196444035763
          0.1398002584101086
          0.1617960174455938
          0.1890272613113063
          0.2224609810133600
          0.2632502825360840
          0.3127791936880280
          0.3727136893307156
          0.0482120087679587
          0.0484114902902433
          0.0486976535405424
          0.0491072103090190
          0.0496915297614736
          0.0505216539686615
          0.0516942941792573
          0.0533384088455482
          0.0556215241783349
          0.0587545798915032
          0.0629941644501951
          0.0686419326300454
          0.0760426975954614
          0.0855842347472262
          0.0977020263395409
          0.1128907562408129
          0.1317224121955662
          0.1548697295891107
          0.1831337969928782
          0.2174754473073744
          0.2590509467356550
          0.3092531400726607
          0.3697596143178951
          0.0350022235394426
          0.0353969591730624
          0.0359583281233421
          0.0367522977175155
          0.0378671464486144
          0.0394180582713913
          0.0415508018890397
          0.0444436412920743
          0.0483071836065813
          0.0533830322185479
          0.0599432927982716
          0.0682933040535997
          0.0787790890379408
          0.0917996172356308
          0.1078230345971754
          0.1274059575310153
          0.1512154670699535
          0.1800540810388450
          0.2148884704153123
          0.2568830031508829
          0.3074394057117302
          0.3682440144611098
          0.0255901902534331
          0.0261275123686597
          0.0268831461248891
          0.0279362412171168
          0.0293874627991503
          0.0313605726086713
          0.0340025196897075
          0.0374825222745613
          0.0419915019731095
          0.0477435902988295
          0.0549809120218030
          0.0639818550863422
          0.0750722808910477
          0.0886390000101143
          0.1051451830600432
          0.1251478361654654
          0.1493178506421033
          0.1784633723481013
          0.2135573879250641
          0.2557705620031563
          0.3065105067523758
          0.3674688497690330
          0.0190828881200147
          0.0197976181567912
          0.0207846657126585
          0.0221298973980993
          0.0239357840753343
          0.0263207961570705
          0.0294188740627489
          0.0333802081546559
          0.0383742762676469
          0.0445953953294303
          0.0522704466786089
          0.0616682798667397
          0.0731105080496389
          0.0869837423717352
          0.1037535962650566
          0.1239809672171525
          0.1483412281843109
          0.1776470513040186
          0.2128756856860341
          0.2552016456184211
          0.3060359291740851
          0.3670730907022434
          0.0146979728631879
          0.0156147197450333
          0.0168486236304410
          0.0184825904758255
          0.0206105690102054
          0.0233379114676583
          0.0267832776337301
          0.0310823441533177
          0.0363931163458411
          0.0429024841442720
          0.0508337829390359
          0.0604553610043318
          0.0720903625454755
          0.0861280760676560
          0.1030372887222600
          0.1233821480296656
          0.1478411116568590
          0.1772296511331086
          0.2125274853016638
          0.2549112675726908
          0.3057938261742406
          0.3668712683308273
          0.0129761741319562
          0.0144373731005609
          0.0163146491441172
          0.0186910990635124
          0.0216614806909351
          0.0253358560475516
          0.0298441580288201
          0.0353414852668218
          0.0420141027160093
          0.0500862774906996
          0.0598281907647175
          0.0715652300195656
          0.0856890151226471
          0.1026705641991088
          0.1230760594407830
          0.1475857592216397
          0.1770166979079948
          0.2123499332430165
          0.2547632556969156
          0.3056704534162789
          0.3667684407041125
          0.0114012896593789
          0.0130401707850662
          0.0150922526689758
          0.0176342139273563
          0.0207563981991826
          0.0245665204602766
          0.0291938709619756
          0.0347940932384197
          0.0415547011065255
          0.0497015449247759
          0.0595064770313345
          0.0712964976436012
          0.0854647048704579
          0.1024834292170425
          0.1229199941865012
          0.1474556372082296
          0.1769082248241867
          0.2122595177024956
          0.2546878975338888
          0.3056076482788814
          0.3667160992059944
          0.0105105325256629
          0.0122689829744613
          0.0144311462211830
          0.0170718304117998
          0.0202807781402304
          0.0241660056161702
          0.0288576507590063
          0.0345124736512916
          0.0413191857075401
          0.0495048028465847
          0.0593422510793022
          0.0711594867395676
          0.0853504410251546
          0.1023881599710881
          0.1228405757387818
          0.1473894401354885
          0.1768530524738283
          0.2122135364242441
          0.2546495775230279
          0.3055757136944791
          0.3666894862669934
          0.0140836569573791
          0.0167791181919587
          0.0200350038171920
          0.0239601178328527
          0.0286854567807141
          0.0343686232871558
          0.0411991085374441
          0.0494046248000574
          0.0592587058825123
          0.0710898307019368
          0.0852923752740193
          0.1023397616947035
          0.1228002385908857
          0.1473558232465676
          0.1768250371988464
          0.2121901898628150
          0.2546301218711035
          0.3055595005629893
          0.3666759752004479
          0.0139042957289030
          0.0166288560934430
          0.0199093301583380
          0.0238551314879997
          0.0285978230925732
          0.0342955146602840
          0.0411381405639765
          0.0493537944212822
          0.0592163347778590
          0.0710545151483101
          0.0852629426458489
          0.1023152332285204
          0.1227797977921093
          0.1473387892423459
          0.1768108423518715
          0.2121783610148098
          0.2546202646559459
          0.3055512863029776
          0.3666691299689575
          0.0138128041491759
          0.0165524310800697
          0.0198455422782679
          0.0238019205320011
          0.0285534518171380
          0.0342585238148398
          0.0411073076391610
          0.0493280970790721
          0.0591949191158474
          0.0710366685337833
          0.0852480706701843
          0.1023028402742542
          0.1227694707114479
          0.1473301836861176
          0.1768036713391029
          0.2121723853869465
          0.2546152851112791
          0.3055471367530216
          0.3666656719989964
          0.0137665473479718
          0.0165138500288173
          0.0198133747094177
          0.0237751065474817
          0.0285311037767017
          0.0342398996536543
          0.0410917877277669
          0.0493151644292427
          0.0591841426010218
          0.0710276887492447
          0.0852405880646575
          0.1022966052143734
          0.1227642751784830
          0.1473258543448710
          0.1768000637564621
          0.2121693792115227
          0.2546127800554793
          0.3055450492444385
          0.3666639323896977
          0.0137433569255900
          0.0164945226357358
          0.0197972688083358
          0.0237616861178783
          0.0285199214546354
          0.0342305823351486
          0.0410840243835407
          0.0493086958496989
          0.0591787527984202
          0.0710231977668788
          0.0852368459723258
          0.1022934870996308
          0.1227616769710433
          0.1473236893369660
          0.1767982597037515
          0.2121678759178617
          0.2546115273608128
          0.3055440053484446
          0.3666630624549829
          0.0285143763122745
          0.0342259624392451
          0.0410801752552531
          0.0493054888211466
          0.0591760806989892
          0.0710209713286900
          0.0852349908363205
          0.1022919413225424
          0.1227603889495735
          0.1473226160793816
          0.1767973653906637
          0.2121671307036568