<VTKFile type="UnstructuredGrid" version="0.1" byte_order="BigEndian">
  <UnstructuredGrid>
    <Piece NumberOfPoints="2241" NumberOfCells="709">
      <Points>
        <DataArray type="Float32" NumberOfComponents="3" Format="ascii">
          0.001696 0.001633 0.0
          0.003800 0.000760 0.0
          2.000000 0.004141 0.0
          2.000000 0.021585 0.0
          0.001097 0.044816 0.0
          0.001369 0.031106 0.0
          2.000000 0.000011 0.0
          2.000000 0.000023 0.0
          2.000000 0.000038 0.0
          2.000000 0.000057 0.0
          2.000000 0.000079 0.0
          2.000000 0.000105 0.0
          2.000000 0.000136 0.0
          2.000000 0.000174 0.0
          2.000000 0.000219 0.0
          2.000000 0.000274 0.0
          2.000000 0.000339 0.0
          2.000000 0.000418 0.0
          2.000000 0.000512 0.0
          2.000000 0.000625 0.0
          2.000000 0.000760 0.0
          2.000000 0.000923 0.0
          2.000000 0.001118 0.0
          2.000000 0.001352 0.0
          2.000000 0.001633 0.0
          2.000000 0.001970 0.0
          2.000000 0.002374 0.0
          2.000000 0.002859 0.0
          2.000000 0.003442 0.0
          2.000000 0.004980 0.0
          2.000000 0.005986 0.0
          2.000000 0.007194 0.0
          2.000000 0.008643 0.0
          2.000000 0.010382 0.0
          2.000000 0.012469 0.0
          2.000000 0.014974 0.0
          2.000000 0.017979 0.0
          2.000000 0.025913 0.0
          2.000000 0.031106 0.0
          2.000000 0.037338 0.0
          2.000000 0.044816 0.0
          2.000000 0.053789 0.0
          2.000000 0.064558 0.0
          2.000000 0.077480 0.0
          2.000000 0.092987 0.0
          2.000000 0.111594 0.0
          2.000000 0.133924 0.0
          2.000000 0.160719 0.0
          2.000000 0.192874 0.0
          2.000000 0.231459 0.0
          2.000000 0.277762 0.0
          2.000000 0.333324 0.0
          0.001369 0.001633 0.0
          0.001369 0.001352 0.0
          0.000681 0.001352 0.0
          0.000524 0.001352 0.0
          0.000393 0.001118 0.0
          0.000393 0.000923 0.0
          0.000393 0.000760 0.0
          0.000283 0.000760 0.0
          0.000192 0.000625 0.0
          0.000192 0.000512 0.0
          0.000116 0.000512 0.0
          0.001097 0.001352 0.0
          0.000870 0.001352 0.0
          0.000283 0.000625 0.0
          0.000393 0.001352 0.0
          0.000053 0.000512 0.0
          0.006758 0.000760 0.0
          0.008163 0.000760 0.0
          0.004613 0.000760 0.0
          0.005588 0.000760 0.0
          0.020704 0.000760 0.0
          0.024898 0.000760 0.0
          0.464933 0.002859 0.0
          0.557972 0.002859 0.0
          0.017209 0.000760 0.0
          0.129564 0.001970 0.0
          0.155530 0.001970 0.0
          0.129564 0.001118 0.0
          0.129564 0.001352 0.0
          0.089894 0.001118 0.0
          0.107926 0.001118 0.0
          0.186688 0.001970 0.0
          0.224079 0.001970 0.0
          0.035969 0.001118 0.0
          0.043215 0.001118 0.0
          0.803597 0.003442 0.0
          0.964369 0.003442 0.0
          0.051911 0.001118 0.0
          0.062346 0.001118 0.0
          0.268947 0.002859 0.0
          0.322789 0.002859 0.0
          0.074868 0.001118 0.0
          0.669620 0.002859 0.0
          0.669620 0.003442 0.0
          0.009848 0.000760 0.0
          0.011870 0.000760 0.0
          0.014297 0.000760 0.0
          0.035969 0.000760 0.0
          0.035969 0.000923 0.0
          0.029930 0.000760 0.0
          0.129564 0.001633 0.0
          0.224079 0.002374 0.0
          0.268947 0.002374 0.0
          0.387400 0.002859 0.0
          1.157296 0.003442 0.0
          1.388808 0.003442 0.0
          1.388808 0.004141 0.0
          1.666622 0.004141 0.0
          0.002088 0.037338 0.0
          0.002558 0.037338 0.0
          0.129564 0.021585 0.0
          0.155530 0.021585 0.0
          0.387400 0.021585 0.0
          0.464933 0.021585 0.0
          0.268947 0.021585 0.0
          0.322789 0.021585 0.0
          0.009848 0.037338 0.0
          0.011870 0.037338 0.0
          1.388808 0.021585 0.0
          1.666622 0.021585 0.0
          0.107926 0.021585 0.0
          0.557972 0.021585 0.0
          0.669620 0.021585 0.0
          0.089894 0.021585 0.0
          0.003123 0.037338 0.0
          0.003800 0.037338 0.0
          0.051911 0.021585 0.0
          0.062346 0.021585 0.0
          0.008163 0.037338 0.0
          0.001696 0.037338 0.0
          0.001369 0.037338 0.0
          0.004613 0.037338 0.0
          1.157296 0.021585 0.0
          0.035969 0.025913 0.0
          0.043215 0.025913 0.0
          0.014297 0.031106 0.0
          0.014297 0.025913 0.0
          0.224079 0.021585 0.0
          0.014297 0.037338 0.0
          0.029930 0.025913 0.0
          0.043215 0.021585 0.0
          0.186688 0.021585 0.0
          0.964369 0.021585 0.0
          0.074868 0.021585 0.0
          0.005588 0.037338 0.0
          0.006758 0.037338 0.0
          0.017209 0.025913 0.0
          0.020704 0.025913 0.0
          0.024898 0.025913 0.0
          0.803597 0.021585 0.0
          0.003123 0.001118 0.0
          0.003123 0.000923 0.0
          0.002558 0.001352 0.0
          0.002558 0.001118 0.0
          0.002088 0.001633 0.0
          0.002088 0.001352 0.0
          0.003800 0.000923 0.0
          0.001369 0.025913 0.0
          0.001369 0.021585 0.0
          0.001696 0.014974 0.0
          0.001696 0.012469 0.0
          0.001696 0.010382 0.0
          0.001696 0.008643 0.0
          0.001696 0.007194 0.0
          0.001696 0.005986 0.0
          0.001696 0.004980 0.0
          0.001696 0.002859 0.0
          0.001696 0.002374 0.0
          0.001696 0.001970 0.0
          0.001696 0.017979 0.0
          0.001696 0.004141 0.0
          0.001696 0.003442 0.0
          0.001696 0.021585 0.0
          0.006758 0.000274 0.0
          0.006758 0.000219 0.0
          0.003800 0.000625 0.0
          0.008163 0.000011 0.0
          0.003800 0.000512 0.0
          0.003800 0.000418 0.0
          0.006758 0.000105 0.0
          0.006758 0.000079 0.0
          0.008163 0.000038 0.0
          0.008163 0.000023 0.0
          0.005588 0.000274 0.0
          0.003800 0.000339 0.0
          0.003800 0.000274 0.0
          0.004613 0.000274 0.0
          0.006758 0.000174 0.0
          0.006758 0.000136 0.0
          0.006758 0.000057 0.0
          0.008163 0.000057 0.0
          0.001097 0.037338 0.0
          0.001097 0.031106 0.0
          0.000053 0.000011 0.0
          0.000053 0.000023 0.0
          0.000053 0.000038 0.0
          0.000053 0.000057 0.0
          0.000053 0.000079 0.0
          0.000053 0.000105 0.0
          0.000053 0.000136 0.0
          0.000053 0.000174 0.0
          0.000053 0.000219 0.0
          0.000053 0.000274 0.0
          0.000053 0.000339 0.0
          0.000053 0.000418 0.0
          0.000116 0.000011 0.0
          0.000116 0.000023 0.0
          0.000116 0.000038 0.0
          0.000116 0.000057 0.0
          0.000116 0.000079 0.0
          0.000116 0.000105 0.0
          0.000116 0.000136 0.0
          0.000116 0.000174 0.0
          0.000116 0.000219 0.0
          0.000116 0.000274 0.0
          0.000116 0.000339 0.0
          0.000116 0.000418 0.0
          0.000192 0.000011 0.0
          0.000192 0.000023 0.0
          0.000192 0.000038 0.0
          0.000192 0.000057 0.0
          0.000192 0.000079 0.0
          0.000192 0.000105 0.0
          0.000192 0.000136 0.0
          0.000192 0.000174 0.0
          0.000192 0.000219 0.0
          0.000192 0.000274 0.0
          0.000192 0.000339 0.0
          0.000192 0.000418 0.0
          0.000283 0.000011 0.0
          0.000283 0.000023 0.0
          0.000283 0.000038 0.0
          0.000283 0.000057 0.0
          0.000283 0.000079 0.0
          0.000283 0.000105 0.0
          0.000283 0.000136 0.0
          0.000283 0.000174 0.0
          0.000283 0.000219 0.0
          0.000283 0.000274 0.0
          0.000283 0.000339 0.0
          0.000283 0.000418 0.0
          0.000283 0.000512 0.0
          0.000393 0.000011 0.0
          0.000393 0.000023 0.0
          0.000393 0.000038 0.0
          0.000393 0.000057 0.0
          0.000393 0.000079 0.0
          0.000393 0.000105 0.0
          0.000393 0.000136 0.0
          0.000393 0.000174 0.0
          0.000393 0.000219 0.0
          0.000393 0.000274 0.0
          0.000393 0.000339 0.0
          0.000393 0.000418 0.0
          0.000393 0.000512 0.0
          0.000393 0.000625 0.0
          0.000524 0.000011 0.0
          0.000524 0.000023 0.0
          0.000524 0.000038 0.0
          0.000524 0.000057 0.0
          0.000524 0.000079 0.0
          0.000524 0.000105 0.0
          0.000524 0.000136 0.0
          0.000524 0.000174 0.0
          0.000524 0.000219 0.0
          0.000524 0.000274 0.0
          0.000524 0.000339 0.0
          0.000524 0.000418 0.0
          0.000524 0.000512 0.0
          0.000524 0.000625 0.0
          0.000524 0.000760 0.0
          0.000524 0.000923 0.0
          0.000524 0.001118 0.0
          0.000681 0.000011 0.0
          0.000681 0.000023 0.0
          0.000681 0.000038 0.0
          0.000681 0.000057 0.0
          0.000681 0.000079 0.0
          0.000681 0.000105 0.0
          0.000681 0.000136 0.0
          0.000681 0.000174 0.0
          0.000681 0.000219 0.0
          0.000681 0.000274 0.0
          0.000681 0.000339 0.0
          0.000681 0.000418 0.0
          0.000681 0.000512 0.0
          0.000681 0.000625 0.0
          0.000681 0.000760 0.0
          0.000681 0.000923 0.0
          0.000681 0.001118 0.0
          0.000870 0.000011 0.0
          0.000870 0.000023 0.0
          0.000870 0.000038 0.0
          0.000870 0.000057 0.0
          0.000870 0.000079 0.0
          0.000870 0.000105 0.0
          0.000870 0.000136 0.0
          0.000870 0.000174 0.0
          0.000870 0.000219 0.0
          0.000870 0.000274 0.0
          0.000870 0.000339 0.0
          0.000870 0.000418 0.0
          0.000870 0.000512 0.0
[...]
      <CellData Scalars="scalars">
        <DataArray type="Float32" Name="rank" Format="ascii">
          1
          1
          1
          1
          1
          1
          1
          1
          1
          1
          1
          1
          1
          1
          1
          1
          1
          1
          1
          1
          1
          1
          1
          1
          1
          1
          1
          1
          1
          1
          1
          1
          1
          1
          1
          1
          1
          1
          1
          1
          1
          1
          1
          1
          1
          1
          1
          1
          1
          1
          1
          1
          1
          1
          1
          1
          1
          1
          1
          1
          1
          1
          1
          1
          1
          1
          1
          1
          1
          1
          1
          1
          1
          1
          1
          1
          1
          1
          1
          1
          1
          1
          1
          1
          1
          1
          1
          1
          1
          1
          1
          1
          1
          1
          1
          1
          1
          1
          1
          1
          1
          1
          1
          1
          1
          1
          1
          1
          1
          1
          1
          1
          1
          1
          1
          1
          1
          1
          1
          1
          1
          1
          1
          1
          1
          1
          1
          1
          1
          1
          1
          1
          1
          1
          1
          1
          1
          1
          1
          1
          1
          1
          1
          1
          1
          1
          1
          1
          1
          1
          1
          1
          1
          1
          1
          1
          1
          1
          1
          1
          1
          1
          1
          1
          1
          1
          1
          1
          1
          1
          1
          1
          1
          1
          1
          1
          1
          1
          1
          1
          1
          1
          1
          1
          1
          1
          1
          1
          1
          1
          1
          1
          1
          1
          1
          1
          1
          1
          1
          1
          1
          1
          1
          1
          1
          1
          1
          1
          1
          1
          1
          1
          1
          1
          1
          1
          1
          1
          1
          1
          1
          1
          1
          1
          1
          1
          1
          1
          1
          1
          1
          1
          1
          1
          1
          1
          1
          1
          1
          1
          1
          1
          1
          1
          1
          1
          1
          1
          1
          1
          1
          1
          1
          1
          1
          1
          1
          1
          1
          1
          1
          1
          1
          1
          1
          1
          1
          1
          1
          1
          1
          1
          1
          1
          1
          1
          1
          1
          1
          1
          1
          1
          1
          1
          1
          1
          1
          1
          1
          1
          1
          1
          1
          1
          1
          1
          1
          1
          1
          1
          1
          1
          1
          1
          1
          1
          1
          1
          1
          1
          1
          1
          1
          1
          1
          1
          1
          1
          1
          1
          1
          1
          1
          1
          1
          1
          1
          1
          1
          1
          1
          1
          1
          1
          1
          1
          1
          1
          1
          1
          1
          1
          1
          1
          1
          1
          1
          1
          1
          1
          1
          1
          1
          1
          1
          1
          1
          1
          1
          1
          1
          1
          1
          1
          1
          1
          1
          1
          1
          1
          1
          1
          1
          1
          1
          1
          1
          1
          1
          1
          1
          1
          1
          1
          1
          1
          1
          1
          1
          1
          1
          1
          1
          1
          1
          1
          1
          1
          1
          1
          1
          1
          1
          1
          1
          1
          1
          1
          1
          1
          1
          1
          1
          1
          1
          1
          1
          1
          1
          1
          1
          1
          1
          1
          1
          1
          1
          1
          1
          1
          1
          1
          1
          1
          1
          1
          1
          1
          1
          1
          1
          1
          1
          1
          1
          1
          1
          1
          1
          1
          1
          1
          1
          1
          1
          1
          1
          1
          1
          1
          1
          1
          1
          1
          1
          1
          1
          1
          1
          1
          1
          1
          1
          1
          1
          1
          1
          1
          1
          1
          1
          1
          1
          1
          1
          1
          1
          1
          1
          1
          1
          1
          1
          1
          1
          1
          1
          1
          1
          1
          1
          1
          1
          1
          1
          1
          1
          1
          1
          1
          1
          1
          1
          1
          1
          1
          1
          1
          1
          1
          1
          1
          1
          1
          1
          1
          1
          1
          1
          1
          1
          1
          1
          1
          1
          1
          1
          1
          1
          1
          1
          1
          1
          1
          1
          1
          1
          1
          1
          1
          1
          1
          1
          1
          1
          1
          1
          1
          1
          1
          1
          1
          1
          1
          1
          1
          1
          1
          1
          1
          1
          1
          1
          1
          1
          1
          1
          1
          1
          1
          1
          1
          1
          1
          1
          1
          1
          1
          1
          1
          1
          1
          1
          1
          1
          1
          1
          1
          1
          1
          1
          1
          1
          1
          1
          1
          1
          1
          1
          1
          1
          1
          1
          1
          1
          1
          1
          1
          1
          1
          1
          1
          1
          1
          1
          1
          1
          1
          1
          1
          1
          1
          1
          1
          1
          1
          1
          1
          1
          1
          1
          1
          1
          1
          1
          1
          1
          1
          1
          1
          1
          1
          1
          1
          1
          1
          1
          1
          1
          1
          1
          1
          1
          1
          1
          1
          1
          1
          1
          1
          1
          1
          1
          1
          1
          1
          1
          1
          1
          1
          1
          1
          1
          1
          1
          1
          1
          1
          1
          1
          1
          1
          1
          1
          1
          1
          1
          1
          1
          1
          1
          1
          1
          1
          1
          1
          1
          1
          1
        </DataArray>
        <DataArray type="Float32" Name="Wall Distance" Format="ascii">
          0.0237489921756302
          0.0285093462710833
          0.0342217719556417
          0.0018010800180231
          0.0021718470115324
          0.0026167670012531
          0.0031506711019758
          0.0037913562777215
          0.0045601786752615
          0.0054827656570743
          0.0065898701609674
          0.0079183957165005
          0.0095126264449644
          0.0114257041085661
          0.0137213977753844
          0.0164762306209528
          0.0197820310469357
          0.0237489921756302
          0.0285093462710833
          0.0342217719556417
          0.0014921077406300
          0.0018010800180231
          0.0021718470115324
          0.0026167670012531
          0.0031506711019757
          0.0037913562777215
          0.0045601786752615
          0.0054827656570743
          0.0065898701609674
          0.0079183957165005
          0.0095126264449644
          0.0114257041085661
          0.0137213977753844
          0.0164762306209528
          0.0197820310469357
          0.0237489921756302
          0.0285093462710833
          0.0342217719556417
          0.0012346310238008
          0.0014921077406300
          0.0018010800180231
          0.0021718470115324
          0.0026167670012531
          0.0031506711019758
          0.0037913562777215
          0.0045601786752615
          0.0054827656570743
          0.0065898701609674
          0.0079183957165005
          0.0095126264449644
          0.0114257041085661
          0.0137213977753844
          0.0164762306209528
          0.0197820310469357
          0.0237489921756302
          0.0285093462710833
          0.0342217719556417
          0.0010200671611576
          0.0012346310238008
          0.0014921077406300
          0.0018010800180231
          0.0021718470115324
          0.0026167670012531
          0.0031506711019757
          0.0037913562777215
          0.0045601786752615
          0.0054827656570743
          0.0065898701609674
          0.0079183957165005
          0.0095126264449644
          0.0114257041085661
          0.0137213977753844
          0.0164762306209528
          0.0197820310469357
          0.0237489921756302
          0.0285093462710833
          0.0342217719556417
          0.0008412638502871
          0.0010200671611576
          0.0012346310238008
          0.0014921077406300
          0.0018010800180231
          0.0021718470115324
          0.0026167670012531
          0.0031506711019758
          0.0037913562777215
          0.0045601786752615
          0.0054827656570743
          0.0065898701609674
          0.0079183957165005
          0.0095126264449644
          0.0114257041085661
          0.0137213977753844
          0.0164762306209528
          0.0197820310469357
          0.0237489921756302
          0.0285093462710833
          0.0342217719556417
          0.0008412638502871
          0.0010200671611576
          0.0012346310238008
          0.0014921077406300
          0.0018010800180231
          0.0021718470115324
          0.0026167670012531
          0.0031506711019758
          0.0037913562777215
          0.0045601786752615
          0.0054827656570743
          0.0065898701609674
          0.0079183957165005
          0.0095126264449644
          0.0114257041085661
          0.0137213977753844
          0.0164762306209528
          0.0197820310469357
          0.0237489921756302
          0.0285093462710833
          0.0342217719556417
          0.0008412638502871
          0.0010200671611576
          0.0012346310238008
          0.0014921077406300
          0.0018010800180231
          0.0021718470115324
          0.0026167670012531
          0.0031506711019758
          0.0037913562777215
          0.0045601786752615
          0.0054827656570743
          0.0065898701609674
          0.0079183957165005
          0.0095126264449644
          0.0114257041085661
          0.0137213977753844
          0.0164762306209528
          0.0197820310469357
          0.0237489921756302
          0.0285093462710833
          0.0342217719556417
          0.0008412638502871
          0.0010200671611576
          0.0012346310238008
          0.0014921077406300
          0.0018010800180231
          0.0021718470115324
          0.0026167670012531
          0.0031506711019758
          0.0037913562777215
          0.0045601786752615
          0.0054827656570743
          0.0065898701609674
          0.0079183957165005
          0.0095126264449644
          0.0114257041085661
          0.0137213977753844
          0.0164762306209528
          0.0197820310469357
          0.0237489921756302
          0.0285093462710833
          0.0342217719556417
          0.0008412638502871
          0.0010200671611576
          0.0012346310238008
          0.0014921077406300
          0.0018010800180231
          0.0021718470115324
          0.0026167670012531
          0.0031506711019758
          0.0037913562777215
          0.0045601786752615
          0.0054827656570743
          0.0065898701609674
          0.0079183957165005
          0.0095126264449644
          0.0114257041085661
          0.0137213977753844
          0.0164762306209528
          0.0197820310469357
          0.0237489921756302
          0.0285093462710833
          0.0342217719556417
          0.0008412638502871
          0.0010200671611576
          0.0012346310238008
          0.0014921077406300
          0.0018010800180231
          0.0021718470115324
          0.0026167670012531
          0.0031506711019758
          0.0037913562777215
          0.0045601786752615
          0.0054827656570743
          0.0065898701609674
          0.0079183957165005
          0.0095126264449644
          0.0114257041085661
          0.0137213977753844
          0.0164762306209528
          0.0197820310469357
          0.0237489921756302
          0.0285093462710833
          0.0342217719556417
          0.0008412638502871
          0.0010200671611576
          0.0012346310238008
          0.0014921077406300
          0.0018010800180231
          0.0021718470115324
          0.0026167670012531
          0.0031506711019758
          0.0037913562777215
          0.0045601786752615
          0.0054827656570743
          0.0065898701609674
          0.0079183957165005
          0.0095126264449644
          0.0114257041085661
          0.0137213977753844
          0.0164762306209528
          0.0197820310469357
          0.0237489921756302
          0.0285093462710833
          0.0342217719556417
          0.0008412638502871
          0.0010200671611576
          0.0012346310238008
          0.0014921077406300
          0.0018010800180231
          0.0021718470115324
          0.0026167670012531
          0.0031506711019758
          0.0037913562777215
          0.0045601786752615
          0.0054827656570743
          0.0065898701609674
          0.0079183957165005
          0.0095126264449644
          0.0114257041085661
          0.0137213977753844
          0.0164762306209528
          0.0197820310469357
          0.0237489921756302
          0.0008412638502871
          0.0010200671611576
          0.0012346310238008
          0.0014921077406300
          0.0018010800180231
          0.0021718470115324
          0.0026167670012531
          0.0031506711019758
          0.0037913562777215
          0.0045601786752615
          0.0054827656570743
          0.0065898701609674
          0.0079183957165005
          0.0095126264449644
          0.0114257041085661
          0.0137213977753844
          0.0164762306209528
          0.0197820310469357
          0.0237489921756302
          0.0008412638502871
          0.0010200671611576
          0.0012346310238008
          0.0014921077406300
          0.0018010800180231
          0.0021718470115324
          0.0026167670012531
          0.0031506711019758
          0.0037913562777215
          0.0045601786752615
          0.0054827656570743
          0.0065898701609674
          0.0079183957165005
          0.0095126264449644
          0.0114257041085661
          0.0137213977753844
          0.0164762306209528
          0.0197820310469357
          0.0237489921756302
          0.0008412638502871
          0.0010200671611576
          0.0012346310238008
          0.0014921077406300
          0.0018010800180231
          0.0021718470115324
          0.0026167670012531
          0.0031506711019758
          0.0037913562777215
          0.0045601786752615
          0.0054827656570743
          0.0065898701609674
          0.0079183957165005
          0.0095126264449644
          0.0114257041085661
          0.0137213977753844
          0.0164762306209528
          0.0197820310469357
          0.0237489921756302
          0.0008412638502871
          0.0010200671611576
          0.0012346310238008
          0.0014921077406300
          0.0018010800180231
          0.0021718470115324
          0.0026167670012531
          0.0031506711019758
          0.0037913562777215
          0.0045601786752615
          0.0054827656570743
          0.0065898701609674
          0.0079183957165005
          0.0095126264449644
          0.0114257041085661
          0.0137213977753844
          0.0164762306209528
          0.0197820310469357
          0.0237489921756302
          0.0012346310238008
          0.0014921077406300
          0.0018010800180231
          0.0021718470115324
          0.0026167670012531
          0.0031506711019758
          0.0037913562777215
          0.0045601786752615
          0.0054827656570743
          0.0065898701609674
          0.0079183957165005
          0.0095126264449644
          0.0114257041085661
          0.0137213977753844
          0.0164762306209528
          0.0197820310469357
          0.0237489921756302
          0.0012346310238008
          0.0014921077406300
          0.0018010800180231
          0.0021718470115324
          0.0026167670012531
          0.0031506711019758
          0.0037913562777215
          0.0045601786752615
          0.0054827656570743
          0.0065898701609674
          0.0079183957165005
          0.0095126264449644
          0.0114257041085661
          0.0137213977753844
          0.0164762306209528
          0.0197820310469357
          0.0012346310238008
          0.0014921077406300
          0.0018010800180231
          0.0021718470115324
          0.0026167670012531
          0.0031506711019758
          0.0037913562777215
          0.0045601786752615
          0.0054827656570743
          0.0065898701609674
          0.0079183957165005
          0.0095126264449644
          0.0114257041085661
          0.0137213977753844
          0.0164762306209528
          0.0197820310469357
          0.0012346310238008
          0.0014921077406300
          0.0018010800180231
          0.0021718470115324
          0.0026167670012531
          0.0031506711019758
          0.0037913562777215
          0.0045601786752615
          0.0054827656570743
          0.0065898701609674
          0.0079183957165005
          0.0095126264449644
          0.0114257041085661
          0.0137213977753844
          0.0164762306209528
          0.0197820310469357
          0.0012346310238008
          0.0014921077406300
          0.0018010800180231
          0.0021718470115324
          0.0026167670012531