<VTKFile type="UnstructuredGrid" version="0.1" byte_order="BigEndian">
  <UnstructuredGrid>
    <Piece NumberOfPoints="2904" NumberOfCells="708">
      <Points>
        <DataArray type="Float32" NumberOfComponents="3" Format="ascii">
          -0.300000 0.003442 0.0
          0.001696 0.001633 0.0
          0.000000 0.000512 0.0
          0.000000 0.031106 0.0
          -0.300000 0.000625 0.0
          0.001097 0.044816 0.0
          0.001369 0.031106 0.0
          0.000000 0.000011 0.0
          0.000000 0.000023 0.0
          0.000000 0.000038 0.0
          0.000000 0.000057 0.0
          0.000000 0.000079 0.0
          0.000000 0.000105 0.0
          0.000000 0.000136 0.0
          0.000000 0.000174 0.0
          0.000000 0.000219 0.0
          0.000000 0.000274 0.0
          0.000000 0.000339 0.0
          0.000000 0.000418 0.0
          0.000000 0.000625 0.0
          0.000000 0.000760 0.0
          0.000000 0.000923 0.0
          0.000000 0.001118 0.0
          0.000000 0.001352 0.0
          0.000000 0.001633 0.0
          0.000000 0.001970 0.0
          0.000000 0.002374 0.0
          0.000000 0.002859 0.0
          0.000000 0.003442 0.0
          0.000000 0.004141 0.0
          0.000000 0.004980 0.0
          0.000000 0.005986 0.0
          0.000000 0.007194 0.0
          0.000000 0.008643 0.0
          0.000000 0.010382 0.0
          0.000000 0.012469 0.0
          0.000000 0.014974 0.0
          0.000000 0.017979 0.0
          0.000000 0.021585 0.0
          0.000000 0.025913 0.0
          0.000000 0.037338 0.0
          0.000000 0.044816 0.0
          0.000000 0.053789 0.0
          0.000000 0.064558 0.0
          0.000000 0.077480 0.0
          0.000000 0.092987 0.0
          0.000000 0.111594 0.0
          0.000000 0.133924 0.0
          0.000000 0.160719 0.0
          0.000000 0.192874 0.0
          0.000000 0.231459 0.0
          0.000000 0.277762 0.0
          0.000000 0.333324 0.0
          -0.300000 0.333324 0.0
          -0.300000 0.277761 0.0
          -0.300000 0.231459 0.0
          -0.300000 0.192874 0.0
          -0.300000 0.160719 0.0
          -0.300000 0.133924 0.0
          -0.300000 0.111594 0.0
          -0.300000 0.092986 0.0
          -0.300000 0.077480 0.0
          -0.300000 0.064558 0.0
          -0.300000 0.053789 0.0
          -0.300000 0.044816 0.0
          -0.300000 0.037338 0.0
          -0.300000 0.031106 0.0
          -0.300000 0.025913 0.0
          -0.300000 0.021585 0.0
          -0.300000 0.017979 0.0
          -0.300000 0.014974 0.0
          -0.300000 0.012469 0.0
          -0.300000 0.010382 0.0
          -0.300000 0.008643 0.0
          -0.300000 0.007194 0.0
          -0.300000 0.005986 0.0
          -0.300000 0.004980 0.0
          -0.300000 0.004141 0.0
          -0.300000 0.002859 0.0
          -0.300000 0.002374 0.0
          -0.300000 0.001970 0.0
          -0.300000 0.001633 0.0
          -0.300000 0.001352 0.0
          -0.300000 0.001118 0.0
          -0.300000 0.000923 0.0
          -0.300000 0.000760 0.0
          -0.300000 0.000512 0.0
          -0.300000 0.000418 0.0
          -0.300000 0.000339 0.0
          -0.300000 0.000274 0.0
          -0.300000 0.000219 0.0
          -0.300000 0.000174 0.0
          -0.300000 0.000136 0.0
          -0.300000 0.000105 0.0
          -0.300000 0.000079 0.0
          -0.300000 0.000057 0.0
          -0.300000 0.000038 0.0
          -0.300000 0.000023 0.0
          -0.300000 0.000011 0.0
          0.001369 0.001633 0.0
          0.001369 0.001352 0.0
          0.000681 0.001352 0.0
          0.000524 0.001352 0.0
          0.000393 0.001118 0.0
          0.000393 0.000923 0.0
          0.000393 0.000760 0.0
          0.000283 0.000760 0.0
          0.000192 0.000625 0.0
          0.000192 0.000512 0.0
          0.000116 0.000512 0.0
          0.001097 0.001352 0.0
          0.000870 0.001352 0.0
          0.000283 0.000625 0.0
          0.000393 0.001352 0.0
          0.000053 0.000512 0.0
          -0.000037 0.000512 0.0
          -0.000090 0.000512 0.0
          -0.000163 0.000512 0.0
          -0.000265 0.000512 0.0
          -0.000409 0.000512 0.0
          -0.000610 0.000512 0.0
          -0.000891 0.000512 0.0
          -0.002607 0.000512 0.0
          -0.003687 0.000512 0.0
          -0.005200 0.000512 0.0
          -0.007317 0.000512 0.0
          -0.010281 0.000512 0.0
          -0.014431 0.000512 0.0
          -0.020241 0.000512 0.0
          -0.028375 0.000512 0.0
          -0.039762 0.000512 0.0
          -0.055704 0.000512 0.0
          -0.078023 0.000512 0.0
          -0.109270 0.000512 0.0
          -0.214259 0.000625 0.0
          -0.001284 0.000512 0.0
          -0.001836 0.000512 0.0
          -0.153015 0.000625 0.0
          -0.109270 0.000625 0.0
          0.000870 0.044816 0.0
          0.000524 0.044816 0.0
          0.000681 0.044816 0.0
          0.000393 0.044816 0.0
          0.000116 0.044816 0.0
          0.000192 0.044816 0.0
          0.000116 0.037338 0.0
          0.000116 0.031106 0.0
          0.000053 0.031106 0.0
          0.000283 0.044816 0.0
          -0.000037 0.031106 0.0
          -0.000090 0.031106 0.0
          -0.000163 0.031106 0.0
          -0.000265 0.031106 0.0
          -0.000409 0.031106 0.0
          -0.000409 0.025913 0.0
          -0.000610 0.025913 0.0
          -0.000610 0.021585 0.0
          -0.000610 0.017979 0.0
          -0.000610 0.012469 0.0
          -0.000610 0.014974 0.0
          -0.000891 0.012469 0.0
          -0.001836 0.012469 0.0
          -0.001284 0.012469 0.0
          -0.002607 0.012469 0.0
          -0.003687 0.012469 0.0
          -0.003687 0.010382 0.0
          -0.010281 0.008643 0.0
          -0.007317 0.008643 0.0
          -0.010281 0.007194 0.0
          -0.014431 0.007194 0.0
          -0.039762 0.007194 0.0
          -0.028375 0.007194 0.0
          -0.039762 0.005986 0.0
          -0.055704 0.005986 0.0
          -0.078023 0.003442 0.0
          -0.055704 0.003442 0.0
          -0.109270 0.003442 0.0
          -0.214259 0.003442 0.0
          -0.153015 0.003442 0.0
          -0.055704 0.004141 0.0
          -0.055704 0.004980 0.0
          -0.020241 0.007194 0.0
          -0.005200 0.008643 0.0
          -0.003687 0.008643 0.0
          0.002088 0.037338 0.0
          0.002558 0.037338 0.0
          0.129564 0.021585 0.0
          0.155530 0.021585 0.0
          0.387400 0.021585 0.0
          0.464933 0.021585 0.0
          0.268947 0.021585 0.0
          0.322789 0.021585 0.0
          0.009848 0.037338 0.0
          0.011870 0.037338 0.0
          1.388808 0.021585 0.0
          1.666622 0.021585 0.0
          0.107926 0.021585 0.0
          0.557972 0.021585 0.0
          0.669620 0.021585 0.0
          0.089894 0.021585 0.0
          0.003123 0.037338 0.0
          0.003800 0.037338 0.0
          0.051911 0.021585 0.0
          0.062346 0.021585 0.0
          0.008163 0.037338 0.0
          0.001696 0.037338 0.0
          0.001369 0.037338 0.0
          0.004613 0.037338 0.0
          1.157296 0.021585 0.0
          0.035969 0.025913 0.0
          0.043215 0.025913 0.0
          0.014297 0.031106 0.0
          0.014297 0.025913 0.0
          0.224079 0.021585 0.0
          0.014297 0.037338 0.0
          0.029930 0.025913 0.0
          0.043215 0.021585 0.0
          0.186688 0.021585 0.0
          0.964369 0.021585 0.0
          0.074868 0.021585 0.0
          0.005588 0.037338 0.0
          0.006758 0.037338 0.0
          0.017209 0.025913 0.0
          0.020704 0.025913 0.0
          0.024898 0.025913 0.0
          0.803597 0.021585 0.0
          0.003123 0.001118 0.0
          0.003123 0.000923 0.0
          0.002558 0.001352 0.0
          0.002558 0.001118 0.0
          0.002088 0.001633 0.0
          0.002088 0.001352 0.0
          0.003800 0.000923 0.0
          0.001097 0.333324 0.0
          0.001097 0.277762 0.0
          0.001097 0.231459 0.0
          0.001097 0.133924 0.0
          0.001097 0.111594 0.0
          0.001097 0.192874 0.0
          0.001097 0.160719 0.0
          0.001097 0.077480 0.0
          0.001097 0.064558 0.0
          0.001097 0.092987 0.0
          0.001097 0.053789 0.0
          0.001369 0.025913 0.0
          0.001369 0.021585 0.0
          0.001696 0.014974 0.0
          0.001696 0.012469 0.0
          0.001696 0.010382 0.0
          0.001696 0.008643 0.0
          0.001696 0.007194 0.0
          0.001696 0.005986 0.0
          0.001696 0.004980 0.0
          0.001696 0.002859 0.0
          0.001696 0.002374 0.0
          0.001696 0.001970 0.0
          0.001696 0.017979 0.0
          0.001696 0.004141 0.0
          0.001696 0.003442 0.0
          0.001696 0.021585 0.0
          0.001097 0.037338 0.0
          0.001097 0.031106 0.0
          -0.214259 0.000011 0.0
          -0.214259 0.000023 0.0
          -0.214259 0.000038 0.0
          -0.214259 0.000057 0.0
          -0.214259 0.000079 0.0
          -0.214259 0.000105 0.0
          -0.214259 0.000136 0.0
          -0.214259 0.000174 0.0
          -0.214259 0.000219 0.0
          -0.214259 0.000274 0.0
          -0.214259 0.000339 0.0
          -0.214259 0.000418 0.0
          -0.214259 0.000512 0.0
          -0.153015 0.000011 0.0
          -0.153015 0.000023 0.0
          -0.153015 0.000038 0.0
          -0.153015 0.000057 0.0
          -0.153015 0.000079 0.0
          -0.153015 0.000105 0.0
          -0.153015 0.000136 0.0
          -0.153015 0.000174 0.0
          -0.153015 0.000219 0.0
          -0.153015 0.000274 0.0
          -0.153015 0.000339 0.0
          -0.153015 0.000418 0.0
          -0.153015 0.000512 0.0
          -0.109270 0.000011 0.0
          -0.109270 0.000023 0.0
          -0.109270 0.000038 0.0
          -0.109270 0.000057 0.0
          -0.109270 0.000079 0.0
          -0.109270 0.000105 0.0
          -0.109270 0.000136 0.0
          -0.109270 0.000174 0.0
          -0.109270 0.000219 0.0
          -0.109270 0.000274 0.0
          -0.109270 0.000339 0.0
          -0.109270 0.000418 0.0
[...]
      <CellData Scalars="scalars">
        <DataArray type="Float32" Name="rank" Format="ascii">
          5
          5
          5
          5
          5
          5
          5
          5
          5
          5
          5
          5
          5
          5
          5
          5
          5
          5
          5
          5
          5
          5
          5
          5
          5
          5
          5
          5
          5
          5
          5
          5
          5
          5
          5
          5
          5
          5
          5
          5
          5
          5
          5
          5
          5
          5
          5
          5
          5
          5
          5
          5
          5
          5
          5
          5
          5
          5
          5
          5
          5
          5
          5
          5
          5
          5
          5
          5
          5
          5
          5
          5
          5
          5
          5
          5
          5
          5
          5
          5
          5
          5
          5
          5
          5
          5
          5
          5
          5
          5
          5
          5
          5
          5
          5
          5
          5
          5
          5
          5
          5
          5
          5
          5
          5
          5
          5
          5
          5
          5
          5
          5
          5
          5
          5
          5
          5
          5
          5
          5
          5
          5
          5
          5
          5
          5
          5
          5
          5
          5
          5
          5
          5
          5
          5
          5
          5
          5
          5
          5
          5
          5
          5
          5
          5
          5
          5
          5
          5
          5
          5
          5
          5
          5
          5
          5
          5
          5
          5
          5
          5
          5
          5
          5
          5
          5
          5
          5
          5
          5
          5
          5
          5
          5
          5
          5
          5
          5
          5
          5
          5
          5
          5
          5
          5
          5
          5
          5
          5
          5
          5
          5
          5
          5
          5
          5
          5
          5
          5
          5
          5
          5
          5
          5
          5
          5
          5
          5
          5
          5
          5
          5
          5
          5
          5
          5
          5
          5
          5
          5
          5
          5
          5
          5
          5
          5
          5
          5
          5
          5
          5
          5
          5
          5
          5
          5
          5
          5
          5
          5
          5
          5
          5
          5
          5
          5
          5
          5
          5
          5
          5
          5
          5
          5
          5
          5
          5
          5
          5
          5
          5
          5
          5
          5
          5
          5
          5
          5
          5
          5
          5
          5
          5
          5
          5
          5
          5
          5
          5
          5
          5
          5
          5
          5
          5
          5
          5
          5
          5
          5
          5
          5
          5
          5
          5
          5
          5
          5
          5
          5
          5
          5
          5
          5
          5
          5
          5
          5
          5
          5
          5
          5
          5
          5
          5
          5
          5
          5
          5
          5
          5
          5
          5
          5
          5
          5
          5
          5
          5
          5
          5
          5
          5
          5
          5
          5
          5
          5
          5
          5
          5
          5
          5
          5
          5
          5
          5
          5
          5
          5
          5
          5
          5
          5
          5
          5
          5
          5
          5
          5
          5
          5
          5
          5
          5
          5
          5
          5
          5
          5
          5
          5
          5
          5
          5
          5
          5
          5
          5
          5
          5
          5
          5
          5
          5
          5
          5
          5
          5
          5
          5
          5
          5
          5
          5
          5
          5
          5
          5
          5
          5
          5
          5
          5
          5
          5
          5
          5
          5
          5
          5
          5
          5
          5
          5
          5
          5
          5
          5
          5
          5
          5
          5
          5
          5
          5
          5
          5
          5
          5
          5
          5
          5
          5
          5
          5
          5
          5
          5
          5
          5
          5
          5
          5
          5
          5
          5
          5
          5
          5
          5
          5
          5
          5
          5
          5
          5
          5
          5
          5
          5
          5
          5
          5
          5
          5
          5
          5
          5
          5
          5
          5
          5
          5
          5
          5
          5
          5
          5
          5
          5
          5
          5
          5
          5
          5
          5
          5
          5
          5
          5
          5
          5
          5
          5
          5
          5
          5
          5
          5
          5
          5
          5
          5
          5
          5
          5
          5
          5
          5
          5
          5
          5
          5
          5
          5
          5
          5
          5
          5
          5
          5
          5
          5
          5
          5
          5
          5
          5
          5
          5
          5
          5
          5
          5
          5
          5
          5
          5
          5
          5
          5
          5
          5
          5
          5
          5
          5
          5
          5
          5
          5
          5
          5
          5
          5
          5
          5
          5
          5
          5
          5
          5
          5
          5
          5
          5
          5
          5
          5
          5
          5
          5
          5
          5
          5
          5
          5
          5
          5
          5
          5
          5
          5
          5
          5
          5
          5
          5
          5
          5
          5
          5
          5
          5
          5
          5
          5
          5
          5
          5
          5
          5
          5
          5
          5
          5
          5
          5
          5
          5
          5
          5
          5
          5
          5
          5
          5
          5
          5
          5
          5
          5
          5
          5
          5
          5
          5
          5
          5
          5
          5
          5
          5
          5
          5
          5
          5
          5
          5
          5
          5
          5
          5
          5
          5
          5
          5
          5
          5
          5
          5
          5
          5
          5
          5
          5
          5
          5
          5
          5
          5
          5
          5
          5
          5
          5
          5
          5
          5
          5
          5
          5
          5
          5
          5
          5
          5
          5
          5
          5
          5
          5
          5
          5
          5
          5
          5
          5
          5
          5
          5
          5
          5
          5
          5
          5
          5
          5
          5
          5
          5
          5
          5
          5
          5
          5
          5
        </DataArray>
        <DataArray type="Float32" Name="Wall Distance" Format="ascii">
          0.2571567911117800
          0.2571572353992982
          0.2571578825040036
          0.2571588231313322
          0.2571601881890364
          0.2571621665329467
          0.2571650305303900
          0.2571691728750824
          0.2571751596327860
          0.1836648599410084
          0.1836654820194348
          0.1836663880716339
          0.1836677050958320
          0.1836696163757456
          0.1836723863231960
          0.1836763962619955
          0.1836821959561503
          0.1836905778438892
          0.1311708971138326
          0.1311717681405922
          0.1311730367801234
          0.1311748808466126
          0.1311775569550455
          0.1311814352946052
          0.1311870497095919
          0.1311951697997401
          0.1312069047594744
          0.0936747452016515
          0.0936755805428298
          0.0936768001984429
          0.0936785766008584
          0.0936811587147248
          0.0936849058196740
          0.0936903361717247
          0.0936981970654064
          0.0937095656583449
          0.0937259940917585
          0.0668925523213755
          0.0668937220962465
          0.0668954300334468
          0.0668979175734176
          0.0669015332949185
          0.0669067801831241
          0.0669143836890180
          0.0669253896647322
          0.0669413051840648
          0.0669643009907968
          0.0477628944072976
          0.0477645326660595
          0.0477669245701060
          0.0477704081786421
          0.0477754715015908
          0.0477828185883085
          0.0477934646127008
          0.0478088725450911
          0.0478311493552613
          0.0478633274261498
          0.0479097669714653
          0.0479767300173254
          0.0480731954110789
          0.0340995215582263
          0.0341018162034260
          0.0341051663174471
          0.0341100451940793
          0.0341171358930533
          0.0341274235058516
          0.0341423277022648
          0.0341638928311234
          0.0341950599624871
          0.0342400553020938
          0.0343049419676181
          0.0343983995623086
          0.0345328160356087
          0.0347257980871109
          0.0243409032360277
          0.0243441177236344
          0.0243488104093613
          0.0243556437258317
          0.0243655732324528
          0.0243799760392875
          0.0244008347492274
          0.0244310001386737
          0.0244745647350941
          0.0245373914431050
          0.0246278548323614
          0.0247578690747888
          0.0249442893356857
          0.0252107762365974
          0.0173717690403132
          0.0173762728082268
          0.0173828466306926
          0.0173924170129950
          0.0174063191617970
          0.0174264746576095
          0.0174556444512854
          0.0174977871142535
          0.0175585621393362
          0.0176460296815196
          0.0177716070620423
          0.0179513471443408
          0.0182075905313910
          0.0185709994465124
          0.0123956504380495
          0.0124019614069166
          0.0124111702443066
          0.0124245707848435
          0.0124440241141561
          0.0124722014139823
          0.0125129257979875
          0.0125716483558560
          0.0126561010007405
          0.0127771730562029
          0.0129500503867249
          0.0131956300138927
          0.0135421615684542
          0.0140269671501782
          0.0088438550317969
          0.0088526983847848
          0.0088655946605547
          0.0088843447099405
          0.0089115294850748
          0.0089508340158971
          0.0090074931775910
          0.0090888923167333
          0.0092053524402091
          0.0093711137105606
          0.0096054893567175
          0.0099340964453802
          0.0103899836734761
          0.0110144191157127
          0.0118571509142515
          0.0063104739276870
          0.0063228615368516
          0.0063409051368718
          0.0063670943244372
          0.0064049720461198
          0.0064595463201341
          0.0065378316251777
          0.0066495317502096
          0.0068078500606807
          0.0070303684858813
          0.0073398729323194
          0.0077649585407081
          0.0083402679727277
          0.0091063570044461
          0.0101094182703865
          0.0045059924071693
          0.0045233244822725
          0.0045485123157111
          0.0045849510836552
          0.0046374080245345
          0.0047124966746337
          0.0048192456444090
          0.0049697242078502
          0.0051796436798795
          0.0054688177212777
          0.0058613668149292
          0.0063856454274550
          0.0070740339576253
          0.0079628904787875
          0.0090929766923065
          0.0032241860946902
          0.0032483646286042
          0.0032833477827638
          0.0033336443727495
          0.0034054311826384
          0.0035069977550410
          0.0036491830487342
          0.0038457206150351
          0.0041134069839114
          0.0044720661524161
          0.0049443937354193
          0.0055558866178386
          0.0063350899912180
          0.0073143033715332
          0.0085307464246316
          0.0100280957310323
          0.0118583031703988
          0.0023184950850091
          0.0023520026023660
          0.0024000866940605
          0.0024684465310152
          0.0025645672169102
          0.0026979764129812
          0.0028803785167691
          0.0031256376211300
          0.0034496609296206
          0.0038703254678101
          0.0044076153452496
          0.0050840849552300
          0.0059256568471039
          0.0069626918577122
          0.0082312622954630
          0.0097745971202863
          0.0116447155225323
          0.0016850922543772
          0.0017309051639330
          0.0017956983552085
          0.0018860924474490
          0.0020102540773866
          0.0021778873191941
          0.0024001451745004
          0.0026895588880756
          0.0030601106233874
          0.0035275396188239
          0.0041098892471675
          0.0048282539813231
          0.0057076725438542
          0.0067781409604058
          0.0080757535995013
          0.0096440067626755
          0.0115353161060473
          0.0012505205193913
          0.0013116014448561
          0.0013959936414683
          0.0015105000450044
          0.0016629453161166
          0.0018621113955125
          0.0021177730146934
          0.0024408999793988
          0.0028440363474326
          0.0033418260744660
          0.0039516395862533
          0.0046942840104088
          0.0055948004276528
          0.0066833719761377
          0.0079963780852234
          0.0095776371295515
          0.0114798860874407
          0.0009622026615727
          0.0010403512594980
          0.0011449151239145
          0.0012820463258811
          0.0014585676272374
          0.0016821091679950
          0.0019613757806992
          0.0023065179670249
          0.0027295741765318
          0.0032449705663177
          0.0038700759578334
          0.0046258334298550
          0.0055374926137503
          0.0066354723791377
          0.0079563870786649
          0.0095442739925388
          0.0114520660978699
          0.0007807478910251
          0.0008752508504032
          0.0009972782710700
          0.0011521180895788
          0.0013457907848155
          0.0015853152905224
          0.0018790232240394
          0.0022369082378350
          0.0026710126413865
          0.0031958672281865
          0.0038289974288276
          0.0045915213545253
          0.0055088617634430
          0.0066115979346859
          0.0079364871955097
          0.0095276912128042
          0.0114382495124335
          0.0137318459739554
          0.0164849328666010
          0.0197892796079753
          0.0237550302666138
          0.0006743864218481
          0.0007818528176064
          0.0009164026015771
          0.0010828692774515
          0.0012870052907668
          0.0015357260027951
          0.0018373780412944
          0.0022020418392149
          0.0026418815903888
          0.0031715606823199
          0.0038087335364315
          0.0045746364029178
          0.0054947964328141
          0.0065998831212549
          0.0079267306655921
          0.0095195656409175
          0.0114314820647954
          0.0137262093943659
          0.0164802379342335
          0.0197853687990980
          0.0237517724510582
          0.0285116623283432
          0.0006168792195868
          0.0007328279160487
          0.0008749495157601
          0.0010480213739275
          0.0012578257225906
          0.0015113561089966
          0.0018170583377800
          0.0021851158329093
          0.0026277901907775
          0.0031598322932353
          0.0037989727724982
          0.0045665130257535
          0.0054880352461081
          0.0065942550965857
          0.0079220453271168
          0.0095156646214548
          0.0114282336998486
          0.0137235042092335
          0.0164779848890836
          0.0197834921693038
          0.0237502092372561
          0.0285103601071458
          0.0005882313305479
          0.0007088814299045
          0.0008549928554588
          0.0010314188910890
          0.0012440263978120
          0.0014998911361129
          0.0018075334402600
          0.0021772017228371
          0.0026212129694066
          0.0031543646386232
          0.0037944262134203
          0.0045627313522108
          0.0054848889744130
          0.0065916368609818
          0.0079198660615687
          0.0095138504040858
          0.0114267231478193
          0.0137222463278379
          0.0164769372956501
          0.0197826196253233
          0.0237494824341972
          0.0285097546614013
          0.0005751552226487
          0.0006980689893702
          0.0008460497713735
          0.0010240177549095
          0.0012378970526513
          0.0014948113112261
          0.0018033204306818
          0.0021737053118821
          0.0026183095455012
          0.0031519523670575
          0.0037924210931630
          0.0045610640055026
          0.0054835020330804
          0.0065904828361310
          0.0079189056042180
          0.0095130508821538
          0.0114260574795669
          0.0137216920234062
          0.0164764756683037
          0.0197822351411191
          0.0237491621749356
          0.0285094878805893
          0.0005698750261420
          0.0006937249667242
          0.0008424691279426
          0.0010210613981452
          0.0012354526013241
          0.0014927876186450
          0.0018016433041572
          0.0021723141588405
          0.0026171547338271
          0.0031509931375727
          0.0037916238978050
          0.0045604011780489
          0.0054829507202064
          0.0065900241336328
          0.0079185238559855
          0.0095127331090596
          0.0114257929126588
          0.0137214717211614
          0.0164762922021053
          0.0197820823361923
          0.0237490348965596
          0.0285093818574225
          0.0005680916998256
          0.0006922607626907
          0.0008412638502871
          0.0010200671611576
          0.0012346310238008
          0.0014921077406300
          0.0018010800180231
          0.0021718470115324
          0.0026167670012531
          0.0031506711019757
          0.0037913562777215
          0.0045601786752615
          0.0054827656570743